LAMMPS (30 Oct 2019)
# pouring spheres into container box

units		lj
atom_style      sphere
boundary        f f f
dimension	3
comm_modify     vel yes

region          box block -10 10 -10 10 -10 10 units box
create_box      2 box
Created orthogonal box = (-10 -10 -10) to (10 10 10)
  1 by 2 by 2 MPI processor grid

pair_style	hybrid gran/hooke 4000.0 NULL 100.0 NULL 0.5 1
pair_coeff	* * gran/hooke

region          container block -6 6 -6 6 -6 6 units box
fix		container all wall/gran/region hooke/history 		4000.0 NULL 100.0 NULL 0.5 1 region container

neighbor	0.3 bin
neigh_modify	delay 0 every 1 check yes

fix             2 all nve/sphere
fix		3 all gravity 1.0 vector 0 0 -1

region          slab block -2 2 -2 2 -2 2 units box
fix             ins all pour 100 2 4767548 vol 0.4 10 	        diam one 1.0 region slab ignore
Particle insertion: 48 every 566 steps, 100 by step 1133

timestep	0.005

compute         1 all temp
compute_modify  1 dynamic/dof yes

compute         2 all temp/sphere
compute_modify  2 dynamic/dof yes

thermo		100
thermo_style	custom step atoms temp c_1 c_2 press
thermo_modify   lost ignore
compute_modify  thermo_temp dynamic/dof yes

#dump		2 all image 100 image.*.jpg type type #		zoom 1.4 adiam 1.0 box no 0.0 axes yes 0.9 0.03
#dump_modify	2 pad 5

run	        5000
Neighbor list info ...
  update every 1 steps, delay 0 steps, check yes
  max neighbors/atom: 2000, page size: 100000
  master list distance cutoff = 1.3
  ghost atom cutoff = 1.3
  binsize = 0.65, bins = 31 31 31
  1 neighbor lists, perpetual/occasional/extra = 1 0 0
  (1) pair gran/hooke, perpetual
      attributes: half, newton on, size
      pair build: half/size/bin/newton
      stencil: half/bin/3d/newton
      bin: standard
Per MPI rank memory allocation (min/avg/max) = 0.4843 | 0.4843 | 0.4843 Mbytes
Step Atoms Temp c_1 c_2 Press 
       0        0            0            0            0            0 
     100       30     0.803783     0.803783   0.39507978 0.0029137134 
     200       30    1.1967995    1.1967995    0.5882574 0.0043383984 
     300       30    1.2814686    1.2814686   0.62987441 0.0046453238 
     400       30   0.82043046   0.82043046   0.41050731 0.0029740604 
     500       30   0.76864192   0.76864192   0.38816336 0.0044954338 
     600       64   0.50841254   0.50841254   0.26231777 0.0068620331 
     700       64   0.57312354   0.57312354    0.2951111 0.0045133479 
     800       64   0.61999479   0.61999479   0.32020689 0.0055941605 
     900       64   0.50706975   0.50706975   0.27509238 0.0049740422 
    1000       64   0.44769017   0.44769017   0.24740753 0.0061199917 
    1100       64   0.46844082   0.46844082   0.25873583  0.012044524 
    1200       99   0.44186391   0.44186391   0.24318944 0.0093892395 
    1300       99   0.40702018   0.40702018   0.22265402 0.0095541679 
    1400       99   0.37891717   0.37891717   0.21347799 0.0085409092 
    1500       99   0.35363858   0.35363858   0.19918786 0.0094822923 
    1600       99   0.26581207   0.26581207   0.15443602 0.0045091905 
    1700      100   0.22134602   0.22134602   0.13025386 0.0033871429 
    1800      100   0.11363577   0.11363577  0.073811339 0.0056342994 
    1900      100  0.067533285  0.067533285  0.049248585 0.00097764833 
    2000      100  0.059761486  0.059761486  0.041501501 0.0018001944 
    2100      100  0.057563162  0.057563162  0.038368159 0.0011982169 
    2200      100     0.048539     0.048539   0.03130982 0.00091682801 
    2300      100  0.028185591  0.028185591  0.021034723 0.00040257817 
    2400      100  0.018618647  0.018618647   0.01537136 0.00032005601 
    2500      100  0.019089915  0.019089915  0.014587367 0.0010435436 
    2600      100 0.0099643664 0.0099643664 0.0080589849 0.00013775446 
    2700      100 0.0090491443 0.0090491443 0.0072200888 0.00035647923 
    2800      100  0.006721636  0.006721636 0.0056766152 0.00012138241 
    2900      100 0.0060733304 0.0060733304 0.0051254898 0.00047128655 
    3000      100  0.005007159  0.005007159  0.004298071 0.00020650166 
    3100      100 0.0035367183 0.0035367183 0.0029743458 0.00022290092 
    3200      100 0.0032793422 0.0032793422 0.0027958258 0.00040353087 
    3300      100 0.0026504275 0.0026504275 0.0023483735 0.00027940012 
    3400      100 0.0023332333 0.0023332333 0.0020742487 0.00019777821 
    3500      100 0.0020535787 0.0020535787 0.0018211118 0.00024046372 
    3600      100 0.0013950516 0.0013950516  0.001295118 0.00012367531 
    3700      100 0.0013289689 0.0013289689 0.0012083684 7.1312821e-05 
    3800      100 0.0010889459 0.0010889459 0.0010345634 7.9096685e-05 
    3900      100 0.00098147868 0.00098147868 0.00094805015 7.2186371e-05 
    4000      100 0.00088110901 0.00088110901 0.00086621723 7.2001715e-05 
    4100      100 0.00069719004 0.00069719004 0.00069366237 9.2693648e-05 
    4200      100 0.00060729359 0.00060729359 0.00057918703 0.00013147192 
    4300      100 0.00046652449 0.00046652449 0.00047039467 5.6823844e-05 
    4400      100 0.00031980249 0.00031980249 0.00035001463 0.00020173634 
    4500      100 0.00025089867 0.00025089867 0.00026652884 8.531361e-05 
    4600      100 0.00024165273 0.00024165273 0.00025206628 0.00010020507 
    4700      100 0.00023937003 0.00023937003 0.00024815779 8.8552726e-05 
    4800      100 0.00024216182 0.00024216182 0.00024881177 6.6785405e-05 
    4900      100 0.00025128047 0.00025128047 0.0002562633 6.8293166e-05 
    5000      100 0.0002609203 0.0002609203 0.00026222426 0.00010187912 
Loop time of 0.0477293 on 4 procs for 5000 steps with 100 atoms

Performance: 45255207.907 tau/day, 104757.426 timesteps/s
90.2% CPU use with 4 MPI tasks x no OpenMP threads

MPI task timing breakdown:
Section |  min time  |  avg time  |  max time  |%varavg| %total
---------------------------------------------------------------
Pair    | 0.00043678 | 0.0019182  | 0.0035975  |   3.1 |  4.02
Neigh   | 0.0014803  | 0.0023663  | 0.0033071  |   1.8 |  4.96
Comm    | 0.0069358  | 0.012955   | 0.017      |   3.7 | 27.14
Output  | 0.00063968 | 0.0008601  | 0.0011227  |   0.0 |  1.80
Modify  | 0.0013549  | 0.0095527  | 0.01565    |   6.2 | 20.01
Other   |            | 0.02008    |            |       | 42.06

Nlocal:    25 ave 52 max 0 min
Histogram: 2 0 0 0 0 0 0 0 0 2
Nghost:    4.5 ave 11 max 0 min
Histogram: 2 0 0 0 0 0 1 0 0 1
Neighs:    40 ave 85 max 0 min
Histogram: 2 0 0 0 0 0 0 0 1 1

Total # of neighbors = 160
Ave neighs/atom = 1.6
Neighbor list builds = 274
Dangerous builds = 0

region          container delete
variable        theta equal (step-5000)*(4.0*PI/5000)
region          container block -6 6 -6 6 -6 6 units box                 rotate v_theta 0 0 0 0 0 1
run	        5000
Per MPI rank memory allocation (min/avg/max) = 5.609 | 5.672 | 5.735 Mbytes
Step Atoms Temp c_1 c_2 Press 
    5000      100 0.0002609203 0.0002609203 0.00026222426 0.00010051372 
    5100      100   0.70298379   0.70298379   0.37507052  0.010300775 
    5200      100    0.7665722    0.7665722   0.40706535  0.011402418 
    5300      100   0.80890874   0.80890874     0.421966  0.011072799 
    5400      100   0.84754034   0.84754034   0.43767306  0.011640048 
    5500      100   0.89196993   0.89196993   0.46114163  0.012926697 
    5600      100   0.99371561   0.99371561   0.50794246  0.013965667 
    5700      100     1.065603     1.065603   0.54219598  0.017459152 
    5800      100    1.1054682    1.1054682   0.56170644  0.019892797 
    5900      100    1.1547522    1.1547522   0.58582772   0.01668029 
    6000      100    1.1664692    1.1664692   0.59104749  0.017520349 
    6100      100    1.1879294    1.1879294   0.60195072  0.018078561 
    6200      100    1.2174478    1.2174478   0.61531916  0.019822398 
    6300      100     1.273546     1.273546    0.6396113  0.019761955 
    6400      100    1.2946711    1.2946711   0.64918185  0.021104239 
    6500      100    1.3066556    1.3066556   0.65454602  0.021025154 
    6600      100    1.3142944    1.3142944   0.65831166  0.020617914 
    6700      100    1.3120509    1.3120509   0.65741374  0.021156767 
    6800      100    1.3139015    1.3139015   0.65833062  0.020862373 
    6900      100     1.316953     1.316953   0.66013718  0.020947426 
    7000      100    1.3252169    1.3252169   0.66440577  0.021006181 
    7100      100     1.327278     1.327278   0.66570436      0.02121 
    7200      100    1.3320043    1.3320043   0.66743643  0.020850735 
    7300      100    1.3314315    1.3314315   0.66748402  0.021043112 
    7400      100    1.3304387    1.3304387   0.66727503  0.021390279 
    7500      100    1.3469406    1.3469406   0.67375451  0.021230712 
    7600      100    1.3530791    1.3530791   0.67648825  0.021401994 
    7700      100    1.3487935    1.3487935   0.67449765   0.02243799 
    7800      100    1.3507732    1.3507732   0.67551135  0.022170996 
    7900      100    1.3539674    1.3539674   0.67704018  0.022437341 
    8000      100    1.3561644    1.3561644   0.67828927  0.022808963 
    8100      100    1.3579457    1.3579457   0.67907424  0.021899557 
    8200      100    1.3591504    1.3591504    0.6794492  0.021889275 
    8300      100    1.3687519    1.3687519   0.68356391  0.021784075 
    8400      100    1.3687533    1.3687533   0.68348042  0.022026314 
    8500      100    1.3685624    1.3685624   0.68321597  0.022129669 
    8600      100    1.3702134    1.3702134   0.68404347  0.022355314 
    8700      100    1.3719044    1.3719044    0.6850205  0.022213016 
    8800      100    1.3735385    1.3735385   0.68582302  0.022242806 
    8900      100    1.3729533    1.3729533   0.68573345   0.02229158 
    9000      100    1.3731481    1.3731481   0.68556487  0.022268055 
    9100      100    1.3733222    1.3733222   0.68554473  0.022371689 
    9200      100    1.3745197    1.3745197   0.68614956  0.022619607 
    9300      100    1.3738289    1.3738289   0.68579947  0.022977122 
    9400      100    1.3735039    1.3735039   0.68562527  0.022628959 
    9500      100    1.3729301    1.3729301   0.68535368  0.022639085 
    9600      100    1.3723841    1.3723841   0.68511205  0.022577152 
    9700      100    1.3721541    1.3721541   0.68504395  0.022667936 
    9800      100    1.3730894    1.3730894   0.68546298  0.022789928 
    9900      100    1.3740349    1.3740349   0.68592985  0.022861618 
   10000      100    1.3729979    1.3729979   0.68543881  0.022709218 
Loop time of 0.105848 on 4 procs for 5000 steps with 100 atoms

Performance: 20406526.117 tau/day, 47237.329 timesteps/s
95.8% CPU use with 4 MPI tasks x no OpenMP threads

MPI task timing breakdown:
Section |  min time  |  avg time  |  max time  |%varavg| %total
---------------------------------------------------------------
Pair    | 0.00048161 | 0.0062513  | 0.012452   |   7.2 |  5.91
Neigh   | 0.0028539  | 0.006076   | 0.008606   |   3.3 |  5.74
Comm    | 0.0031102  | 0.0079897  | 0.012999   |   5.4 |  7.55
Output  | 0.0022511  | 0.0027004  | 0.0029135  |   0.5 |  2.55
Modify  | 0.0044377  | 0.029865   | 0.055565   |  14.5 | 28.21
Other   |            | 0.05297    |            |       | 50.04

Nlocal:    25 ave 55 max 0 min
Histogram: 2 0 0 0 0 0 0 0 1 1
Nghost:    3.25 ave 7 max 0 min
Histogram: 2 0 0 0 0 0 0 0 1 1
Neighs:    47.5 ave 115 max 0 min
Histogram: 2 0 0 0 0 0 1 0 0 1

Total # of neighbors = 190
Ave neighs/atom = 1.9
Neighbor list builds = 626
Dangerous builds = 0

region          container delete
region          container block -6 6 -6 6 -6 6 units box
run             5000
Per MPI rank memory allocation (min/avg/max) = 5.609 | 5.672 | 5.735 Mbytes
Step Atoms Temp c_1 c_2 Press 
   10000      100    1.3729979    1.3729979   0.68543881  0.022746713 
   10100      100   0.23018554   0.23018554   0.14259362  0.013802219 
   10200      100   0.11815461   0.11815461  0.086073556 0.0025530223 
   10300      100  0.079424718  0.079424718  0.066604499 0.0010141225 
   10400      100   0.04459735   0.04459735  0.043663457 0.00079418681 
   10500      100  0.031189856  0.031189856  0.030313576 0.0014181284 
   10600      100  0.022725386  0.022725386  0.023710327 0.00029934574 
   10700      100  0.021343216  0.021343216  0.022239737 0.00040009809 
   10800      100  0.015303014  0.015303014  0.017067946 0.0010544362 
   10900      100  0.011056681  0.011056681  0.012754763 0.00055748468 
   11000      100 0.0085002818 0.0085002818 0.0089557703 0.00058806119 
   11100      100 0.0065829847 0.0065829847 0.0067734194 0.00030035195 
   11200      100 0.0054508568 0.0054508568 0.0054084239 0.00031635833 
   11300      100 0.0057948479 0.0057948479 0.0053214491 7.6688971e-05 
   11400      100 0.0040395939 0.0040395939  0.004282886 0.00010022818 
   11500      100 0.0031367735 0.0031367735 0.0033772533 4.9142578e-05 
   11600      100 0.0022271482 0.0022271482 0.0025477055 7.7638081e-05 
   11700      100 0.0018020054 0.0018020054  0.002118717 0.0001367305 
   11800      100 0.0016824315 0.0016824315 0.0019808838 0.00013679491 
   11900      100 0.0015826205 0.0015826205 0.0018614003 7.9635526e-05 
   12000      100 0.0014228752 0.0014228752  0.001699416 0.00013023518 
   12100      100 0.0011524078 0.0011524078  0.001427889 0.00017502415 
   12200      100 0.0010793948 0.0010793948 0.0013662928 1.4827767e-05 
   12300      100 0.0010657458 0.0010657458 0.0013441702 1.3188604e-05 
   12400      100 0.00098364006 0.00098364006  0.001249032 7.6263876e-05 
   12500      100 0.00083855713 0.00083855713 0.0010877548 2.7842671e-05 
   12600      100 0.00072943419 0.00072943419 0.00098852688 0.00016918173 
   12700      100 0.0006960719 0.0006960719 0.00095725733 8.6138898e-06 
   12800      100 0.00067232227 0.00067232227 0.00092839907 1.732985e-05 
   12900      100 0.00064472844 0.00064472844 0.00089953332 1.3952147e-05 
   13000      100 0.00064325608 0.00064325608 0.00089805591 1.4234188e-05 
   13100      100 0.00056021709 0.00056021709 0.00080682329 7.4684633e-06 
   13200      100 0.00052548779 0.00052548779 0.00076736172 8.2025643e-06 
   13300      100 0.00052368474 0.00052368474 0.00076530239 1.3431967e-05 
   13400      100 0.00046436844 0.00046436844 0.00069935859 6.0380686e-06 
   13500      100 0.00039433862 0.00039433862 0.00064876623 1.0482945e-05 
   13600      100 0.00030114978 0.00030114978  0.000564493 3.7267285e-06 
   13700      100 0.00027176445 0.00027176445 0.00052897912 3.3630851e-06 
   13800      100 0.00024823936 0.00024823936 0.00051118496 9.5071695e-06 
   13900      100 0.00018360784 0.00018360784 0.0004621553 3.8487323e-05 
   14000      100 0.00017623403 0.00017623403 0.00045377218 1.1695131e-05 
   14100      100 0.00015658325 0.00015658325 0.00042962765 6.5544657e-06 
   14200      100 0.00014670991 0.00014670991 0.00040893211 1.8155352e-06 
   14300      100 0.00014452351 0.00014452351 0.00040638666 8.1379862e-07 
   14400      100 0.00011302311 0.00011302311 0.00036720968 2.2168837e-05 
   14500      100 0.00010907275 0.00010907275 0.00035679728 1.3497752e-06 
   14600      100 0.00010814435 0.00010814435 0.00035546117 2.0289232e-06 
   14700      100 0.00010619184 0.00010619184 0.00035335935 1.3141241e-06 
   14800      100 0.00010172958 0.00010172958 0.00035010044 5.2165348e-06 
   14900      100 0.00010045649 0.00010045649 0.00034934749 3.6491838e-06 
   15000      100 9.944839e-05 9.944839e-05 0.00034822112 3.0350703e-06 
Loop time of 0.0441185 on 4 procs for 5000 steps with 100 atoms

Performance: 48959027.272 tau/day, 113331.082 timesteps/s
94.7% CPU use with 4 MPI tasks x no OpenMP threads

MPI task timing breakdown:
Section |  min time  |  avg time  |  max time  |%varavg| %total
---------------------------------------------------------------
Pair    | 0.00038838 | 0.0017031  | 0.0035629  |   3.2 |  3.86
Neigh   | 0.00039768 | 0.00078589 | 0.0013065  |   0.0 |  1.78
Comm    | 0.0011227  | 0.0049327  | 0.0097117  |   5.5 | 11.18
Output  | 0.00067902 | 0.00089377 | 0.0010731  |   0.0 |  2.03
Modify  | 0.00040483 | 0.0095209  | 0.022923   |   9.8 | 21.58
Other   |            | 0.02628    |            |       | 59.57

Nlocal:    25 ave 60 max 0 min
Histogram: 2 0 0 0 0 0 1 0 0 1
Nghost:    6.25 ave 14 max 0 min
Histogram: 2 0 0 0 0 0 0 1 0 1
Neighs:    48 ave 132 max 0 min
Histogram: 2 0 0 0 1 0 0 0 0 1

Total # of neighbors = 192
Ave neighs/atom = 1.92
Neighbor list builds = 88
Dangerous builds = 0

region          container delete
variable        theta equal (step-15000)*(4.0*PI/5000)
region          container block -6 6 -6 6 -6 6 units box                 rotate v_theta 0 0 0 1 1 1
run	        5000
Per MPI rank memory allocation (min/avg/max) = 5.609 | 5.672 | 5.735 Mbytes
Step Atoms Temp c_1 c_2 Press 
   15000      100 9.944839e-05 9.944839e-05 0.00034822112 2.9230982e-06 
   15100      100   0.97215717   0.97215717   0.63479042  0.012335587 
   15200      100   0.89646427   0.89646427   0.57696903  0.012175964 
   15300      100   0.90045944   0.90045944   0.58756229  0.018508487 
   15400      100    1.2087397    1.2087397   0.77616076  0.021653597 
   15500      100    1.3428947    1.3428947   0.87673441   0.01980814 
   15600      100    1.5638185    1.5638185   0.98194876  0.024426967 
   15700      100    1.6223532    1.6223532   0.98679508  0.026368782 
   15800      100    1.8365193    1.8365193    1.0712116  0.028275189 
   15900      100    2.0008263    2.0008263    1.1424771  0.028745158 
   16000      100    1.9407538    1.9407538    1.1013627  0.027231327 
   16100      100    1.9815349    1.9815349    1.1177896  0.028876242 
   16200      100    2.0841752    2.0841752    1.1668732  0.029259704 
   16300      100    2.0954491    2.0954491    1.1839865  0.026908766 
   16400      100    2.2624372    2.2624372    1.2676716  0.029552696 
   16500      100    2.3220025    2.3220025     1.294015  0.029633456 
   16600      100    2.3182514    2.3182514    1.2888416  0.031397989 
   16700      100    2.4845432    2.4845432    1.3797568  0.035004899 
   16800      100    2.5623835    2.5623835    1.4163478  0.033139916 
   16900      100    2.6982861    2.6982861    1.4804136  0.039601184 
   17000      100    2.9064116    2.9064116    1.5856203  0.038743725 
   17100      100    2.9557962    2.9557962    1.6099301  0.040727785 
   17200      100    3.1176248    3.1176248    1.6947062   0.03940086 
   17300      100    3.3484235    3.3484235    1.8137914  0.047469922 
   17400      100    3.2464778    3.2464778    1.7582099  0.054126377 
   17500      100    3.3799425    3.3799425    1.8290765    0.0510379 
   17600      100    3.4074081    3.4074081    1.8493411  0.044500187 
   17700      100    3.1713553    3.1713553    1.7360173  0.051723507 
   17800      100    3.1913619    3.1913619    1.7492145  0.049302133 
   17900      100    2.9957349    2.9957349    1.6438066  0.040230888 
   18000      100    3.0197629    3.0197629    1.6629525   0.04138504 
   18100      100      3.05003      3.05003    1.6733107  0.039635698 
   18200      100    3.0800652    3.0800652    1.6914873  0.041503244 
   18300      100     3.056284     3.056284    1.6670324    0.0393835 
   18400      100    3.3153701    3.3153701    1.8094853  0.042668024 
   18500      100    3.3936504    3.3936504    1.8658904  0.042019421 
   18600      100    3.3563228    3.3563228    1.8419617  0.045150973 
   18700      100    3.4838418    3.4838418    1.9090931  0.046695904 
   18800      100    3.6961359    3.6961359    2.0102072  0.046823524 
   18900      100    3.7186844    3.7186844    2.0096054  0.053254334 
   19000      100    3.5769988    3.5769988    1.9392467  0.049079759 
   19100      100    3.6252481    3.6252481    1.9595606  0.050385428 
   19200      100    3.9001655    3.9001655    2.1137713  0.051168763 
   19300      100    3.6560087    3.6560087    1.9983349  0.047566361 
   19400      100    3.8695424    3.8695424    2.0962117   0.06650419 
   19500      100    3.6918323    3.6918323    2.0032009  0.056238019 
   19600      100    3.6787666    3.6787666    1.9917714  0.053495013 
   19700      100    3.7158898    3.7158898    2.0063392  0.053711086 
   19800      100    3.5812981    3.5812981    1.9492601  0.053229722 
   19900      100     3.572304     3.572304    1.9630552  0.050401398 
   20000      100    3.6335343    3.6335343    2.0056689  0.052605247 
Loop time of 0.088309 on 4 procs for 5000 steps with 100 atoms

Performance: 24459570.877 tau/day, 56619.377 timesteps/s
94.7% CPU use with 4 MPI tasks x no OpenMP threads

MPI task timing breakdown:
Section |  min time  |  avg time  |  max time  |%varavg| %total
---------------------------------------------------------------
Pair    | 0.0015399  | 0.002629   | 0.0038548  |   1.6 |  2.98
Neigh   | 0.0075777  | 0.0088341  | 0.010338   |   1.1 | 10.00
Comm    | 0.021665   | 0.023735   | 0.026466   |   1.1 | 26.88
Output  | 0.00078177 | 0.00095659 | 0.0012667  |   0.0 |  1.08
Modify  | 0.013059   | 0.022812   | 0.027889   |   4.0 | 25.83
Other   |            | 0.02934    |            |       | 33.23

Nlocal:    25 ave 43 max 10 min
Histogram: 1 0 0 1 1 0 0 0 0 1
Nghost:    5.75 ave 8 max 4 min
Histogram: 1 0 1 0 0 1 0 0 0 1
Neighs:    35 ave 66 max 13 min
Histogram: 1 1 0 0 1 0 0 0 0 1

Total # of neighbors = 140
Ave neighs/atom = 1.4
Neighbor list builds = 913
Dangerous builds = 0

region          container delete
region          container block -6 6 -6 6 -6 6 units box
run             5000
Per MPI rank memory allocation (min/avg/max) = 5.734 | 5.735 | 5.735 Mbytes
Step Atoms Temp c_1 c_2 Press 
   20000      100    3.6335343    3.6335343    2.0056689  0.052284287 
   20100      100    1.1915437    1.1915437   0.74024655  0.018047246 
   20200      100   0.99437195   0.99437195   0.61981169  0.012305353 
   20300      100   0.82001115   0.82001115    0.5337709  0.011071541 
   20400      100   0.76982587   0.76982587   0.49800455  0.010012581 
   20500      100    0.8290901    0.8290901   0.51958071 0.0092950319 
   20600      100   0.84748151   0.84748151    0.5120048  0.010662955 
   20700      100   0.89307467   0.89307467   0.53076822  0.011051799 
   20800      100   0.78107711   0.78107711   0.45901318  0.012633599 
   20900      100   0.78335941   0.78335941   0.45034214 0.0097392282 
   21000      100   0.71011598   0.71011598   0.40621515 0.0092467674 
   21100      100   0.58800878   0.58800878   0.33930511 0.0073564514 
   21200      100   0.29680776   0.29680776   0.18794933 0.0085174571 
   21300      100   0.19907262   0.19907262   0.12699278 0.0051997504 
   21400      100   0.15700937   0.15700937  0.099793056 0.0041653702 
   21500      100   0.11851956   0.11851956   0.07760753 0.0018134018 
   21600      100   0.10411922   0.10411922  0.069242995 0.0018398247 
   21700      100  0.070507331  0.070507331  0.052747301 0.0029644397 
   21800      100   0.04105891   0.04105891  0.032375827 0.0014707075 
   21900      100  0.026753091  0.026753091  0.021973761 0.00054863025 
   22000      100  0.023878245  0.023878245  0.019461087 0.0012856083 
   22100      100  0.024821533  0.024821533  0.019296374 0.00047557466 
   22200      100  0.021400023  0.021400023  0.016418002 0.0012227736 
   22300      100 0.0092403522 0.0092403522 0.0090284723 0.00033948523 
   22400      100 0.0085982224 0.0085982224 0.0081040413 0.00068951698 
   22500      100 0.0087988715 0.0087988715 0.0082311301 0.00034305678 
   22600      100  0.010563412  0.010563412 0.0083963356 0.00031923226 
   22700      100  0.006452216  0.006452216 0.0057814324 0.00028373804 
   22800      100 0.0071274789 0.0071274789 0.0059601666 0.00026119027 
   22900      100 0.0051418826 0.0051418826 0.0047577282 0.00023446588 
   23000      100 0.0045973278 0.0045973278 0.0043869897 0.00036388081 
   23100      100 0.0051910369 0.0051910369 0.0046337639 0.00019742804 
   23200      100 0.0043716335 0.0043716335  0.003931169 0.00036967356 
   23300      100 0.0040913211 0.0040913211 0.0035800798 0.00014164525 
   23400      100 0.0034977535 0.0034977535 0.0031340531 0.0001738096 
   23500      100 0.0038969503 0.0038969503 0.0032906648 0.00015601865 
   23600      100 0.0030142548 0.0030142548 0.0026178015 0.00014073823 
   23700      100 0.0023768395 0.0023768395 0.0021752744 0.00013105514 
   23800      100 0.0018826753 0.0018826753 0.0017910709 0.00013997346 
   23900      100 0.0018097321 0.0018097321 0.0017083264 0.00012945537 
   24000      100 0.0018645273 0.0018645273 0.0017105901 0.00024463453 
   24100      100 0.0013336253 0.0013336253 0.0013190132 0.00010415789 
   24200      100 0.0012044687 0.0012044687 0.0012082552 0.00010962729 
   24300      100 0.0010841063 0.0010841063 0.0011327766 0.00038175062 
   24400      100 0.0011421159 0.0011421159 0.0011857642 0.00012545958 
   24500      100 0.0017827884 0.0017827884 0.0015116258 9.9498154e-05 
   24600      100 0.00093620339 0.00093620339 0.00098422383 0.00012455914 
   24700      100 0.00097262461 0.00097262461 0.0010237806 8.3076539e-05 
   24800      100 0.0016930134 0.0016930134 0.0013187012 3.5257846e-05 
   24900      100 0.00066185724 0.00066185724 0.00067103376 2.5601103e-05 
   25000      100 0.00063519629 0.00063519629 0.00063965342 3.8602569e-05 
Loop time of 0.0466282 on 4 procs for 5000 steps with 100 atoms

Performance: 46323861.883 tau/day, 107231.162 timesteps/s
92.4% CPU use with 4 MPI tasks x no OpenMP threads

MPI task timing breakdown:
Section |  min time  |  avg time  |  max time  |%varavg| %total
---------------------------------------------------------------
Pair    | 0.00055337 | 0.0020561  | 0.004071   |   3.2 |  4.41
Neigh   | 0.001806   | 0.0027058  | 0.0035799  |   1.5 |  5.80
Comm    | 0.0051684  | 0.0078629  | 0.011332   |   2.9 | 16.86
Output  | 0.00066042 | 0.0010551  | 0.0013382  |   0.8 |  2.26
Modify  | 0.0010154  | 0.0084596  | 0.017322   |   8.0 | 18.14
Other   |            | 0.02449    |            |       | 52.52

Nlocal:    25 ave 51 max 0 min
Histogram: 2 0 0 0 0 0 0 0 0 2
Nghost:    5 ave 11 max 0 min
Histogram: 2 0 0 0 0 0 0 0 1 1
Neighs:    37.25 ave 86 max 0 min
Histogram: 2 0 0 0 0 0 0 1 0 1

Total # of neighbors = 149
Ave neighs/atom = 1.49
Neighbor list builds = 310
Dangerous builds = 0
Total wall time: 0:00:00
