LAMMPS (30 Oct 2019)
variable	name string mixer

thermo_modify	flush yes
variable	seed equal 14314

###############################################
# Particle parameters
################################################

variable	rlo equal 0.3
variable	rhi equal 0.6
variable	dlo equal 2.0*${rlo}
variable	dlo equal 2.0*0.3
variable	dhi equal 2.0*${rhi}
variable	dhi equal 2.0*0.6
variable 	skin equal ${rhi}
variable 	skin equal 0.6

variable	coeffRes equal 0.1
variable	coeffFric equal 0.5

variable	kn equal 10^5
variable	kt equal 0.2*${kn}
variable	kt equal 0.2*100000

variable	gravity equal 1.0
variable	density equal 1.0

variable	min_mass equal ${density}*4.0/3.0*PI*${rlo}*${rlo}*${rlo}
variable	min_mass equal 1*4.0/3.0*PI*${rlo}*${rlo}*${rlo}
variable	min_mass equal 1*4.0/3.0*PI*0.3*${rlo}*${rlo}
variable	min_mass equal 1*4.0/3.0*PI*0.3*0.3*${rlo}
variable	min_mass equal 1*4.0/3.0*PI*0.3*0.3*0.3
variable	a equal (-2.0*log(${coeffRes})/PI)^2
variable	a equal (-2.0*log(0.1)/PI)^2
variable        gamma_n equal sqrt($a*2*${kn}/${min_mass}/(1+0.25*$a))
variable        gamma_n equal sqrt(0.405284734569351*2*${kn}/${min_mass}/(1+0.25*$a))
variable        gamma_n equal sqrt(0.405284734569351*2*100000/${min_mass}/(1+0.25*$a))
variable        gamma_n equal sqrt(0.405284734569351*2*100000/0.113097335529233/(1+0.25*$a))
variable        gamma_n equal sqrt(0.405284734569351*2*100000/0.113097335529233/(1+0.25*0.405284734569351))
variable        gamma_t equal ${gamma_n}*0.5
variable        gamma_t equal 806.699778405191*0.5

variable	tcol equal PI/sqrt(2*${kn}/${min_mass}-${gamma_n}/4.0)
variable	tcol equal PI/sqrt(2*100000/${min_mass}-${gamma_n}/4.0)
variable	tcol equal PI/sqrt(2*100000/0.113097335529233-${gamma_n}/4.0)
variable	tcol equal PI/sqrt(2*100000/0.113097335529233-806.699778405191/4.0)

variable	dt equal ${tcol}*0.02
variable	dt equal 0.00236257621510454*0.02
timestep	${dt}
timestep	4.72515243020908e-05

###############################################

variable	dumpfreq equal 1000
variable	logfreq equal 1000

newton 		on
atom_style	sphere

boundary	p p f

region		boxreg block 0 20 0 20 0 20
create_box	1 boxreg
Created orthogonal box = (0 0 0) to (20 20 20)
  1 by 2 by 2 MPI processor grid

pair_style	gran/hertz/history 		${kn} ${kt} ${gamma_n} ${gamma_t} ${coeffFric} 1
pair_style	gran/hertz/history 		100000 ${kt} ${gamma_n} ${gamma_t} ${coeffFric} 1
pair_style	gran/hertz/history 		100000 20000 ${gamma_n} ${gamma_t} ${coeffFric} 1
pair_style	gran/hertz/history 		100000 20000 806.699778405191 ${gamma_t} ${coeffFric} 1
pair_style	gran/hertz/history 		100000 20000 806.699778405191 403.349889202595 ${coeffFric} 1
pair_style	gran/hertz/history 		100000 20000 806.699778405191 403.349889202595 0.5 1
pair_coeff	* *

neighbor        ${skin} bin
neighbor        0.6 bin
thermo 		${logfreq}
thermo 		1000

comm_style	brick
comm_modify 	mode multi group all vel yes
balance		1.1 shift xyz 20 1.1
Neighbor list info ...
  update every 1 steps, delay 10 steps, check yes
  max neighbors/atom: 2000, page size: 100000
  master list distance cutoff = 0
  ghost atom cutoff = 0
  binsize = 20, bins = 1 1 1
  1 neighbor lists, perpetual/occasional/extra = 1 0 0
  (1) pair gran/hertz/history, perpetual
      attributes: half, newton on, size, history
      pair build: half/size/bin/newton
      stencil: half/bin/3d/newton
      bin: standard
WARNING: Communication cutoff is 0.0. No ghost atoms will be generated. Atoms may get lost. (src/comm_brick.cpp:166)
fix		bal all balance 10000 1.1 shift xyz 20 1.01

####################### Options specific to pouring #########################

region	     	insreg cylinder z 10 10 8 10 18 side in units box
region	    	cylreg cylinder z 10 10 10 0 20 side in units box

variable	theta equal (step/400000)*2*PI

region          b1 block 2 18 9 11 0 4 side out                 rotate v_theta 10 10 0 0 0 1 units box
region          b2 block 9 11 2 18 0 3.99999 side out                 rotate v_theta 10 10 0 0 0 1 units box

region		mixer intersect 3 cylreg b1 b2 side in

fix		grav all gravity ${gravity} vector 0 0 -1
fix		grav all gravity 1 vector 0 0 -1
fix		1 all nve/sphere

fix		mixwall all wall/gran/region hertz/history                 ${kn} ${kt} ${gamma_n} ${gamma_t} ${coeffFric} 1 region mixer
fix		mixwall all wall/gran/region hertz/history                 100000 ${kt} ${gamma_n} ${gamma_t} ${coeffFric} 1 region mixer
fix		mixwall all wall/gran/region hertz/history                 100000 20000 ${gamma_n} ${gamma_t} ${coeffFric} 1 region mixer
fix		mixwall all wall/gran/region hertz/history                 100000 20000 806.699778405191 ${gamma_t} ${coeffFric} 1 region mixer
fix		mixwall all wall/gran/region hertz/history                 100000 20000 806.699778405191 403.349889202595 ${coeffFric} 1 region mixer
fix		mixwall all wall/gran/region hertz/history                 100000 20000 806.699778405191 403.349889202595 0.5 1 region mixer

fix		ins all pour 1000 1 42424 region insreg 		diam range ${dlo} ${dhi} dens ${density} ${density}
fix		ins all pour 1000 1 42424 region insreg 		diam range 0.6 ${dhi} dens ${density} ${density}
fix		ins all pour 1000 1 42424 region insreg 		diam range 0.6 1.2 dens ${density} ${density}
fix		ins all pour 1000 1 42424 region insreg 		diam range 0.6 1.2 dens 1 ${density}
fix		ins all pour 1000 1 42424 region insreg 		diam range 0.6 1.2 dens 1 1
Particle insertion: 444 every 84653 steps, 1000 by step 169307

#dump		1 all custom ${dumpfreq} ${name}_pour.dump #		id type mass diameter x y z

#dump		2 all image 4000 image.*.jpg type type #		axes yes 0.8 0.02 view 60 -30 zoom 1.5 #                box no 0.0 axes no 0.0 0.0
#dump_modify	2 pad 6

thermo_style	custom step cpu atoms ke v_theta
WARNING: New thermo_style command, previous thermo_modify settings will be lost (src/output.cpp:708)
thermo_modify	flush yes lost warn

run		200000
Per MPI rank memory allocation (min/avg/max) = 5.819 | 5.819 | 5.819 Mbytes
Step CPU Atoms KinEng v_theta 
       0            0        0           -0            0 
    1000  0.054726601      444           -0  0.015707963 
    2000   0.10803986      444           -0  0.031415927 
    3000   0.16209149      444           -0   0.04712389 
    4000   0.22576761      444           -0  0.062831853 
    5000   0.27709842      444           -0  0.078539816 
    6000   0.32441592      444           -0   0.09424778 
    7000   0.37213016      444           -0   0.10995574 
    8000   0.41836596      444           -0   0.12566371 
    9000   0.46555734      444           -0   0.14137167 
   10000   0.51151371      444           -0   0.15707963 
   11000   0.54528093      444           -0    0.1727876 
   12000   0.57772088      444           -0   0.18849556 
   13000   0.60936332      444           -0   0.20420352 
   14000   0.64114642      444           -0   0.21991149 
   15000   0.67397046      444           -0   0.23561945 
   16000   0.70731068      444           -0   0.25132741 
   17000   0.74136186      444           -0   0.26703538 
   18000    0.7755723      444           -0   0.28274334 
   19000   0.81040668      444           -0    0.2984513 
   20000   0.84549236      444           -0   0.31415927 
   21000   0.87603068      444           -0   0.32986723 
   22000   0.90598178      444           -0   0.34557519 
   23000   0.93622446      444           -0   0.36128316 
   24000   0.96735191      444           -0   0.37699112 
   25000   0.99861217      444           -0   0.39269908 
   26000    1.0301533      444           -0   0.40840704 
   27000     1.064502      444           -0   0.42411501 
   28000    1.1008601      444           -0   0.43982297 
   29000    1.1348779      444           -0   0.45553093 
   30000    1.1686196      444           -0    0.4712389 
   31000    1.2015116      444           -0   0.48694686 
   32000    1.2332165      444           -0   0.50265482 
   33000    1.2648895      444           -0   0.51836279 
   34000    1.2960017      444           -0   0.53407075 
   35000    1.3278291      444           -0   0.54977871 
   36000    1.3593063      444           -0   0.56548668 
   37000    1.3922169      444           -0   0.58119464 
   38000    1.4276397      444           -0    0.5969026 
   39000     1.460444      444           -0   0.61261057 
   40000    1.4945507      444           -0   0.62831853 
   41000    1.5242078      444           -0   0.64402649 
   42000    1.5550091      444           -0   0.65973446 
   43000    1.5865657      444           -0   0.67544242 
   44000    1.6178765      444           -0   0.69115038 
   45000    1.6498907      444           -0   0.70685835 
   46000    1.6822655      444           -0   0.72256631 
   47000    1.7149503      444           -0   0.73827427 
   48000    1.7480817      444           -0   0.75398224 
   49000    1.7817039      444           -0    0.7696902 
   50000    1.8162231      444           -0   0.78539816 
   51000    1.8460228      444           -0   0.80110613 
   52000    1.8762124      444           -0   0.81681409 
   53000    1.9062481      444           -0   0.83252205 
   54000    1.9372711      444           -0   0.84823002 
   55000    1.9692354      444           -0   0.86393798 
   56000    2.0027606      444           -0   0.87964594 
   57000    2.0363033      444           -0   0.89535391 
   58000    2.0735707      444           -0   0.91106187 
   59000    2.1111345      444           -0   0.92676983 
   60000    2.1462617      444           -0    0.9424778 
   61000    2.1788375      444           -0   0.95818576 
   62000    2.2137635      444           -0   0.97389372 
   63000     2.250879      444           -0   0.98960169 
   64000    2.2846563      444           -0    1.0053096 
   65000    2.3205326      444           -0    1.0210176 
   66000     2.357429      444           -0    1.0367256 
   67000    2.3928049      444           -0    1.0524335 
   68000    2.4288394      444           -0    1.0681415 
   69000    2.4652939      444           -0    1.0838495 
   70000    2.5017629      444           -0    1.0995574 
   71000    2.5364068      444           -0    1.1152654 
   72000    2.5717626      444           -0    1.1309734 
   73000    2.6070271      444           -0    1.1466813 
   74000    2.6428885      444           -0    1.1623893 
   75000    2.6787739      444           -0    1.1780972 
   76000    2.7155361      444           -0    1.1938052 
   77000    2.7538908      444           -0    1.2095132 
   78000    2.7910888      444           -0    1.2252211 
   79000    2.8324904      444           -0    1.2409291 
   80000    2.8751626      444           -0    1.2566371 
   81000     2.911396      444           -0     1.272345 
   82000    2.9463015      444           -0     1.288053 
   83000    2.9811313      444           -0     1.303761 
   84000    3.0160046      444           -0    1.3194689 
   85000    3.0700276      888           -0    1.3351769 
   86000    3.1457336      888           -0    1.3508848 
   87000     3.224149      888           -0    1.3665928 
   88000    3.2992034      888           -0    1.3823008 
   89000    3.3736279      888           -0    1.3980087 
   90000    3.4489458      888           -0    1.4137167 
   91000    3.5045874      888           -0    1.4294247 
   92000    3.5592685      888           -0    1.4451326 
   93000    3.6156974      888           -0    1.4608406 
   94000    3.6779821      888           -0    1.4765485 
   95000    3.7352536      888           -0    1.4922565 
   96000    3.7928922      888           -0    1.5079645 
   97000    3.8584626      888           -0    1.5236724 
   98000    3.9182906      888           -0    1.5393804 
   99000    3.9803171      888           -0    1.5550884 
  100000    4.0401247      888           -0    1.5707963 
  101000    4.1009018      888           -0    1.5865043 
  102000    4.1627722      888           -0    1.6022123 
  103000    4.2275894      888           -0    1.6179202 
  104000    4.2901645      888           -0    1.6336282 
  105000    4.3535278      888           -0    1.6493361 
  106000    4.4170039      888           -0    1.6650441 
  107000    4.4798031      888           -0    1.6807521 
  108000    4.5431108      888           -0      1.69646 
  109000    4.6083105      888           -0     1.712168 
  110000    4.6745009      888           -0     1.727876 
  111000    4.7359006      888           -0    1.7435839 
  112000    4.7966638      888           -0    1.7592919 
  113000     4.857697      888           -0    1.7749998 
  114000    4.9242589      888           -0    1.7907078 
  115000    4.9869263      888           -0    1.8064158 
  116000    5.0496621      888           -0    1.8221237 
  117000    5.1122782      888           -0    1.8378317 
  118000     5.175457      888           -0    1.8535397 
  119000    5.2417707      888           -0    1.8692476 
  120000    5.3050649      888           -0    1.8849556 
  121000    5.3653998      888           -0    1.9006636 
  122000    5.4264176      888           -0    1.9163715 
  123000    5.4879286      888           -0    1.9320795 
  124000    5.5514176      888           -0    1.9477874 
  125000    5.6148722      888           -0    1.9634954 
  126000    5.6775224      888           -0    1.9792034 
  127000    5.7402806      888           -0    1.9949113 
  128000    5.8044665      888           -0    2.0106193 
  129000    5.8691909      888           -0    2.0263273 
  130000    5.9344208      888           -0    2.0420352 
  131000    5.9971478      888           -0    2.0577432 
  132000    6.0597932      888           -0    2.0734512 
  133000     6.122865      888           -0    2.0891591 
  134000    6.2100844      888           -0    2.1048671 
  135000    6.2800546      888           -0     2.120575 
  136000     6.345886      888           -0     2.136283 
  137000    6.4114478      888           -0     2.151991 
  138000     6.478631      888           -0    2.1676989 
  139000    6.5453444      888           -0    2.1834069 
  140000    6.6132338      888           -0    2.1991149 
  141000    6.6780751      888           -0    2.2148228 
  142000    6.7431684      888           -0    2.2305308 
  143000    6.8091307      888           -0    2.2462387 
  144000    6.8758276      888           -0    2.2619467 
  145000    6.9426558      888           -0    2.2776547 
  146000       7.0105      888           -0    2.2933626 
  147000    7.0791364      888           -0    2.3090706 
  148000    7.1488688      888           -0    2.3247786 
  149000    7.2218745      888           -0    2.3404865 
  150000    7.2961047      888           -0    2.3561945 
  151000    7.3651612      888           -0    2.3719025 
  152000    7.4346533      888           -0    2.3876104 
  153000     7.504632      888           -0    2.4033184 
  154000    7.5743275      888           -0    2.4190263 
  155000     7.647969      888           -0    2.4347343 
  156000    7.7252891      888           -0    2.4504423 
  157000    7.8040149      888           -0    2.4661502 
  158000    7.8815382      888           -0    2.4818582 
  159000    7.9597154      888           -0    2.4975662 
  160000    8.0385158      888           -0    2.5132741 
  161000    8.1145499      888           -0    2.5289821 
  162000      8.19678      888           -0      2.54469 
  163000     8.275466      888           -0     2.560398 
  164000    8.3509066      888           -0     2.576106 
  165000    8.4277971      888           -0    2.5918139 
  166000    8.5063047      888           -0    2.6075219 
  167000    8.5854232      888           -0    2.6232299 
  168000    8.6654952      888           -0    2.6389378 
  169000    8.7448075      888           -0    2.6546458 
  170000    8.8280735     1000           -0    2.6703538 
  171000    8.9103601     1000           -0    2.6860617 
  172000    8.9941881     1000           -0    2.7017697 
  173000    9.0789108     1000           -0    2.7174776 
  174000    9.1651871     1000           -0    2.7331856 
  175000    9.2516341     1000           -0    2.7488936 
  176000    9.3378239     1000           -0    2.7646015 
  177000    9.4257934     1000           -0    2.7803095 
  178000    9.5134335     1000           -0    2.7960175 
  179000    9.5999019     1000           -0    2.8117254 
  180000    9.6845322     1000           -0    2.8274334 
  181000    9.7706153     1000           -0    2.8431414 
  182000    9.8579218     1000           -0    2.8588493 
  183000    9.9508173     1000           -0    2.8745573 
  184000    10.044393     1000           -0    2.8902652 
  185000    10.135988     1000           -0    2.9059732 
  186000     10.22939     1000           -0    2.9216812 
  187000    10.319389     1000           -0    2.9373891 
  188000    10.412372     1000           -0    2.9530971 
  189000    10.504111     1000           -0    2.9688051 
  190000     10.59676     1000           -0     2.984513 
  191000    10.683077     1000           -0     3.000221 
  192000    10.769751     1000           -0    3.0159289 
  193000    10.854051     1000           -0    3.0316369 
  194000    10.939011     1000           -0    3.0473449 
  195000    11.024704     1000           -0    3.0630528 
  196000    11.110775     1000           -0    3.0787608 
  197000    11.196815     1000           -0    3.0944688 
  198000    11.283801     1000           -0    3.1101767 
  199000    11.371699     1000           -0    3.1258847 
  200000    11.458541     1000           -0    3.1415927 
Loop time of 11.4586 on 4 procs for 200000 steps with 1000 atoms

Performance: 71256.946 tau/day, 17454.107 timesteps/s
96.8% CPU use with 4 MPI tasks x no OpenMP threads

MPI task timing breakdown:
Section |  min time  |  avg time  |  max time  |%varavg| %total
---------------------------------------------------------------
Pair    | 0.28331    | 0.49693    | 0.70566    |  29.4 |  4.34
Neigh   | 0.0095572  | 0.012425   | 0.01497    |   2.1 |  0.11
Comm    | 1.8444     | 2.1178     | 2.4022     |  17.0 | 18.48
Output  | 0.0021298  | 0.0072545  | 0.020753   |   9.2 |  0.06
Modify  | 6.2484     | 6.8005     | 7.3497     |  20.0 | 59.35
Other   |            | 2.024      |            |       | 17.66

Nlocal:    250 ave 275 max 226 min
Histogram: 1 0 1 0 0 0 1 0 0 1
Nghost:    298.5 ave 344 max 248 min
Histogram: 1 0 0 0 0 2 0 0 0 1
Neighs:    940.25 ave 1524 max 428 min
Histogram: 2 0 0 0 0 0 0 0 1 1

Total # of neighbors = 3761
Ave neighs/atom = 3.761
Neighbor list builds = 209
Dangerous builds = 0
unfix 		ins
run		200000
Per MPI rank memory allocation (min/avg/max) = 11.87 | 11.89 | 11.89 Mbytes
Step CPU Atoms KinEng v_theta 
  200000            0     1000   0.99664703    3.1415927 
  201000  0.090847492     1000   0.98300537    3.1573006 
  202000   0.18044329     1000   0.97491608    3.1730086 
  203000    0.2684648     1000   0.94796076    3.1887165 
  204000    0.3561945     1000   0.94637123    3.2044245 
  205000   0.44785666     1000   0.96529603    3.2201325 
  206000   0.53537416     1000   0.96857989    3.2358404 
  207000   0.62197185     1000   0.96768186    3.2515484 
  208000   0.70947838     1000   0.97557467    3.2672564 
  209000   0.80173588     1000   0.98950139    3.2829643 
  210000    0.8914206     1000   0.98363526    3.2986723 
  211000   0.97485113     1000   0.97863675    3.3143802 
  212000    1.0594177     1000   0.95654965    3.3300882 
  213000    1.1430032     1000   0.95018906    3.3457962 
  214000    1.2274594     1000   0.94097757    3.3615041 
  215000    1.3118658     1000   0.94056272    3.3772121 
  216000     1.397799     1000   0.93917259    3.3929201 
  217000    1.4841101     1000   0.93361327     3.408628 
  218000     1.570384     1000   0.91931646     3.424336 
  219000     1.657835     1000   0.90937839     3.440044 
  220000    1.7488632     1000   0.90234498    3.4557519 
  221000    1.8419738     1000   0.89244512    3.4714599 
  222000    1.9309464     1000   0.88456215    3.4871678 
  223000    2.0199325     1000   0.87961179    3.5028758 
  224000    2.1087141     1000   0.87453223    3.5185838 
  225000    2.1970515     1000   0.86454522    3.5342917 
  226000    2.2916803     1000   0.86066914    3.5499997 
  227000     2.380394     1000   0.85536639    3.5657077 
  228000    2.4699256     1000   0.86329273    3.5814156 
  229000    2.5606425     1000    0.8659951    3.5971236 
  230000    2.6521759     1000    0.8665732    3.6128316 
  231000    2.7463741     1000   0.87494044    3.6285395 
  232000    2.8387351     1000   0.87716598    3.6442475 
  233000    2.9294658     1000   0.87311766    3.6599554 
  234000    3.0199718     1000   0.87036132    3.6756634 
  235000     3.111474     1000   0.86030442    3.6913714 
  236000    3.2021391     1000   0.84939771    3.7070793 
  237000    3.2930903     1000   0.83701352    3.7227873 
  238000    3.3843429     1000   0.83361803    3.7384953 
  239000     3.476263     1000   0.81832086    3.7542032 
  240000    3.5689671     1000   0.81613186    3.7699112 
  241000    3.6623306     1000     0.820721    3.7856191 
  242000    3.7556562     1000   0.84144189    3.8013271 
  243000    3.8503654     1000     0.850556    3.8170351 
  244000    3.9441326     1000   0.85006875     3.832743 
  245000    4.0350716     1000   0.84196945     3.848451 
  246000    4.1267908     1000   0.83991501     3.864159 
  247000    4.2181404     1000    0.8284959    3.8798669 
  248000    4.3148119     1000   0.83430364    3.8955749 
  249000    4.4065783     1000   0.84043316    3.9112829 
  250000    4.4955416     1000   0.85751863    3.9269908 
  251000    4.5845518     1000    0.8655852    3.9426988 
  252000    4.6765156     1000   0.85995152    3.9584067 
  253000    4.7956586     1000   0.83706237    3.9741147 
  254000     4.886385     1000   0.82317338    3.9898227 
  255000    4.9760265     1000   0.79045455    4.0055306 
  256000    5.0653124     1000   0.77814902    4.0212386 
  257000    5.1542857     1000   0.76934637    4.0369466 
  258000     5.245748     1000   0.75742834    4.0526545 
  259000    5.3381994     1000   0.74240257    4.0683625 
  260000    5.4317088     1000   0.73554665    4.0840704 
  261000    5.5239635     1000   0.72581346    4.0997784 
  262000    5.6175792     1000   0.72457096    4.1154864 
  263000     5.712147     1000   0.72245199    4.1311943 
  264000    5.8091915     1000   0.72143878    4.1469023 
  265000    5.9025066     1000   0.71387933    4.1626103 
  266000    5.9960566     1000   0.71007497    4.1783182 
  267000    6.0918317     1000   0.71100144    4.1940262 
  268000    6.1884046     1000   0.71266044    4.2097342 
  269000    6.2837918     1000   0.72359988    4.2254421 
  270000    6.3804526     1000   0.72240384    4.2411501 
  271000     6.475409     1000   0.72457032     4.256858 
  272000    6.5700397     1000   0.73246449     4.272566 
  273000    6.6654804     1000   0.72580562     4.288274 
  274000    6.7615931     1000   0.73438146    4.3039819 
  275000    6.8619804     1000   0.72431197    4.3196899 
  276000    6.9573562     1000   0.72007175    4.3353979 
  277000    7.0530763     1000    0.7315287    4.3511058 
  278000    7.1525903     1000   0.73516298    4.3668138 
  279000    7.2492154     1000   0.71561978    4.3825218 
  280000    7.3446264     1000   0.70937766    4.3982297 
  281000    7.4352789     1000   0.70012527    4.4139377 
  282000    7.5265596     1000   0.70433067    4.4296456 
  283000    7.6196027     1000   0.69673136    4.4453536 
  284000    7.7131007     1000   0.69554803    4.4610616 
  285000    7.8093982     1000   0.69764377    4.4767695 
  286000    7.9066362     1000   0.69187832    4.4924775 
  287000    8.0003481     1000   0.69903107    4.5081855 
  288000    8.0939181     1000   0.69966495    4.5238934 
  289000    8.1877372     1000    0.7062526    4.5396014 
  290000    8.2794833     1000    0.6992006    4.5553093 
  291000    8.3720086     1000   0.69223622    4.5710173 
  292000    8.4655786     1000   0.68553754    4.5867253 
  293000    8.5542288     1000   0.69285643    4.6024332 
  294000    8.6496255     1000   0.69983239    4.6181412 
  295000    8.7684495     1000   0.70453996    4.6338492 
  296000    8.8787882     1000    0.6947947    4.6495571 
  297000    8.9727001     1000    0.6934505    4.6652651 
  298000    9.0627434     1000   0.69689844    4.6809731 
  299000     9.151752     1000   0.70407749     4.696681 
  300000    9.2413149     1000   0.70199684     4.712389 
  301000    9.3287067     1000   0.68954314    4.7280969 
  302000    9.4160669     1000   0.68299131    4.7438049 
  303000    9.5019617     1000   0.67563849    4.7595129 
  304000    9.5875499     1000   0.66760214    4.7752208 
  305000    9.6729155     1000   0.66533694    4.7909288 
  306000    9.7626886     1000   0.65955768    4.8066368 
  307000    9.8547392     1000   0.65980304    4.8223447 
  308000    9.9486599     1000   0.66079415    4.8380527 
  309000    10.037244     1000   0.66554492    4.8537606 
  310000    10.128369     1000   0.68580758    4.8694686 
  311000    10.218143     1000    0.7052595    4.8851766 
  312000    10.307673     1000   0.73004691    4.9008845 
  313000    10.398295     1000   0.74060864    4.9165925 
  314000    10.487276     1000   0.76161591    4.9323005 
  315000    10.574813     1000   0.75946991    4.9480084 
  316000    10.664135     1000   0.74955727    4.9637164 
  317000    10.757099     1000   0.73878913    4.9794244 
  318000    10.855708     1000   0.73765829    4.9951323 
  319000    10.955017     1000   0.72744851    5.0108403 
  320000    11.057367     1000   0.73468633    5.0265482 
  321000     11.16196     1000   0.73562681    5.0422562 
  322000    11.256847     1000   0.72599357    5.0579642 
  323000    11.347293     1000   0.72225364    5.0736721 
  324000    11.441079     1000   0.71334717    5.0893801 
  325000    11.534982     1000   0.71345972    5.1050881 
  326000    11.625674     1000   0.71152893     5.120796 
  327000    11.723484     1000   0.71530433     5.136504 
  328000    11.817882     1000   0.72543128     5.152212 
  329000     11.91261     1000   0.73861907    5.1679199 
  330000    12.003628     1000   0.75409236    5.1836279 
  331000    12.092772     1000   0.75755953    5.1993358 
  332000     12.18451     1000   0.75564711    5.2150438 
  333000    12.276004     1000     0.759872    5.2307518 
  334000    12.367345     1000   0.76388922    5.2464597 
  335000    12.460186     1000   0.76240809    5.2621677 
  336000    12.553639     1000   0.77228556    5.2778757 
  337000    12.646094     1000   0.77357492    5.2935836 
  338000    12.739646     1000   0.77801634    5.3092916 
  339000    12.835116     1000   0.78214037    5.3249995 
  340000    12.928285     1000     0.778136    5.3407075 
  341000    13.019466     1000    0.7729363    5.3564155 
  342000    13.110996     1000   0.76332359    5.3721234 
  343000    13.202618     1000    0.7510372    5.3878314 
  344000    13.293059     1000   0.74212704    5.4035394 
  345000    13.383921     1000   0.73820919    5.4192473 
  346000    13.474567     1000   0.72504375    5.4349553 
  347000    13.565312     1000   0.71807031    5.4506633 
  348000    13.658938     1000   0.71730587    5.4663712 
  349000    13.757772     1000   0.71407311    5.4820792 
  350000     13.89494     1000   0.70927742    5.4977871 
  351000    14.039913     1000   0.70494681    5.5134951 
  352000    14.140992     1000   0.69507997    5.5292031 
  353000    14.235803     1000   0.69789076     5.544911 
  354000    14.333457     1000   0.70647605     5.560619 
  355000    14.431975     1000   0.72219253     5.576327 
  356000    14.528639     1000   0.73926788    5.5920349 
  357000    14.627215     1000   0.74705729    5.6077429 
  358000     14.74384     1000   0.73880089    5.6234508 
  359000    14.849554     1000   0.74430022    5.6391588 
  360000    14.946409     1000   0.74125741    5.6548668 
  361000    15.043685     1000   0.72278409    5.6705747 
  362000    15.139592     1000   0.71710261    5.6862827 
  363000    15.238017     1000   0.71410106    5.7019907 
  364000    15.339561     1000   0.71242457    5.7176986 
  365000    15.439437     1000   0.71372787    5.7334066 
  366000    15.534393     1000   0.73041143    5.7491146 
  367000    15.632181     1000   0.73723099    5.7648225 
  368000    15.733047     1000   0.74101364    5.7805305 
  369000    15.841853     1000   0.73691204    5.7962384 
  370000    15.941357     1000   0.72771778    5.8119464 
  371000    16.036125     1000   0.72371156    5.8276544 
  372000    16.135611     1000    0.7161577    5.8433623 
  373000    16.234813     1000   0.71861084    5.8590703 
  374000    16.330816     1000   0.71736282    5.8747783 
  375000     16.42914     1000   0.71307638    5.8904862 
  376000    16.526893     1000   0.70772878    5.9061942 
  377000    16.628204     1000   0.69839795    5.9219022 
  378000    16.732886     1000   0.69199501    5.9376101 
  379000    16.835256     1000   0.67710856    5.9533181 
  380000    16.930078     1000   0.66178662     5.969026 
  381000    17.023705     1000    0.6564158     5.984734 
  382000    17.121048     1000   0.64845343     6.000442 
  383000    17.226458     1000   0.65679198    6.0161499 
  384000    17.324464     1000   0.66873158    6.0318579 
  385000    17.423971     1000   0.68479998    6.0475659 
  386000    17.522482     1000   0.70777913    6.0632738 
  387000    17.624958     1000   0.71818899    6.0789818 
  388000    17.725912     1000   0.74269048    6.0946897 
  389000    17.833917     1000   0.74508114    6.1103977 
  390000    17.935169     1000   0.74821166    6.1261057 
  391000    18.032098     1000   0.75002722    6.1418136 
  392000    18.132847     1000   0.74447587    6.1575216 
  393000    18.226192     1000    0.7392666    6.1732296 
  394000    18.316479     1000   0.74449894    6.1889375 
  395000    18.406735     1000   0.74296234    6.2046455 
  396000    18.500128     1000   0.73389349    6.2203535 
  397000    18.594931     1000   0.72926978    6.2360614 
  398000    18.690862     1000    0.7267098    6.2517694 
  399000    18.788288     1000   0.72717895    6.2674773 
  400000    18.885214     1000   0.72568573    6.2831853 
Loop time of 18.8853 on 4 procs for 200000 steps with 1000 atoms

Performance: 43235.029 tau/day, 10590.249 timesteps/s
97.3% CPU use with 4 MPI tasks x no OpenMP threads

MPI task timing breakdown:
Section |  min time  |  avg time  |  max time  |%varavg| %total
---------------------------------------------------------------
Pair    | 0.89087    | 1.5465     | 2.2706     |  49.7 |  8.19
Neigh   | 0.014092   | 0.020017   | 0.027204   |   3.6 |  0.11
Comm    | 3.4416     | 4.3221     | 5.1028     |  36.3 | 22.89
Output  | 0.0024502  | 0.0084575  | 0.024253   |   9.9 |  0.04
Modify  | 9.8536     | 10.853     | 12.174     |  28.5 | 57.47
Other   |            | 2.135      |            |       | 11.31

Nlocal:    250 ave 270 max 211 min
Histogram: 1 0 0 0 0 0 0 1 0 2
Nghost:    408.25 ave 501 max 305 min
Histogram: 1 0 1 0 0 0 0 0 1 1
Neighs:    1270.25 ave 1636 max 770 min
Histogram: 1 0 0 1 0 0 0 0 0 2

Total # of neighbors = 5081
Ave neighs/atom = 5.081
Neighbor list builds = 164
Dangerous builds = 0
Total wall time: 0:00:30
