LAMMPS (30 Oct 2019)
variable	name string mixer

thermo_modify	flush yes
variable	seed equal 14314

###############################################
# Particle parameters
################################################

variable	rlo equal 0.3
variable	rhi equal 0.6
variable	dlo equal 2.0*${rlo}
variable	dlo equal 2.0*0.3
variable	dhi equal 2.0*${rhi}
variable	dhi equal 2.0*0.6
variable 	skin equal ${rhi}
variable 	skin equal 0.6

variable	coeffRes equal 0.1
variable	coeffFric equal 0.5

variable	kn equal 10^5
variable	kt equal 0.2*${kn}
variable	kt equal 0.2*100000

variable	gravity equal 1.0
variable	density equal 1.0

variable	min_mass equal ${density}*4.0/3.0*PI*${rlo}*${rlo}*${rlo}
variable	min_mass equal 1*4.0/3.0*PI*${rlo}*${rlo}*${rlo}
variable	min_mass equal 1*4.0/3.0*PI*0.3*${rlo}*${rlo}
variable	min_mass equal 1*4.0/3.0*PI*0.3*0.3*${rlo}
variable	min_mass equal 1*4.0/3.0*PI*0.3*0.3*0.3
variable	a equal (-2.0*log(${coeffRes})/PI)^2
variable	a equal (-2.0*log(0.1)/PI)^2
variable        gamma_n equal sqrt($a*2*${kn}/${min_mass}/(1+0.25*$a))
variable        gamma_n equal sqrt(0.405284734569351*2*${kn}/${min_mass}/(1+0.25*$a))
variable        gamma_n equal sqrt(0.405284734569351*2*100000/${min_mass}/(1+0.25*$a))
variable        gamma_n equal sqrt(0.405284734569351*2*100000/0.113097335529233/(1+0.25*$a))
variable        gamma_n equal sqrt(0.405284734569351*2*100000/0.113097335529233/(1+0.25*0.405284734569351))
variable        gamma_t equal ${gamma_n}*0.5
variable        gamma_t equal 806.699778405191*0.5

variable	tcol equal PI/sqrt(2*${kn}/${min_mass}-${gamma_n}/4.0)
variable	tcol equal PI/sqrt(2*100000/${min_mass}-${gamma_n}/4.0)
variable	tcol equal PI/sqrt(2*100000/0.113097335529233-${gamma_n}/4.0)
variable	tcol equal PI/sqrt(2*100000/0.113097335529233-806.699778405191/4.0)

variable	dt equal ${tcol}*0.02
variable	dt equal 0.00236257621510454*0.02
timestep	${dt}
timestep	4.72515243020908e-05

###############################################

variable	dumpfreq equal 1000
variable	logfreq equal 1000

newton 		on
atom_style	sphere

boundary	p p f

region		boxreg block 0 20 0 20 0 20
create_box	1 boxreg
Created orthogonal box = (0 0 0) to (20 20 20)
  1 by 1 by 1 MPI processor grid

pair_style	gran/hertz/history 		${kn} ${kt} ${gamma_n} ${gamma_t} ${coeffFric} 1
pair_style	gran/hertz/history 		100000 ${kt} ${gamma_n} ${gamma_t} ${coeffFric} 1
pair_style	gran/hertz/history 		100000 20000 ${gamma_n} ${gamma_t} ${coeffFric} 1
pair_style	gran/hertz/history 		100000 20000 806.699778405191 ${gamma_t} ${coeffFric} 1
pair_style	gran/hertz/history 		100000 20000 806.699778405191 403.349889202595 ${coeffFric} 1
pair_style	gran/hertz/history 		100000 20000 806.699778405191 403.349889202595 0.5 1
pair_coeff	* *

neighbor        ${skin} bin
neighbor        0.6 bin
thermo 		${logfreq}
thermo 		1000

comm_style	brick
comm_modify 	mode multi group all vel yes
balance		1.1 shift xyz 20 1.1
Neighbor list info ...
  update every 1 steps, delay 10 steps, check yes
  max neighbors/atom: 2000, page size: 100000
  master list distance cutoff = 0
  ghost atom cutoff = 0
  binsize = 20, bins = 1 1 1
  1 neighbor lists, perpetual/occasional/extra = 1 0 0
  (1) pair gran/hertz/history, perpetual
      attributes: half, newton on, size, history
      pair build: half/size/bin/newton
      stencil: half/bin/3d/newton
      bin: standard
WARNING: Communication cutoff is 0.0. No ghost atoms will be generated. Atoms may get lost. (src/comm_brick.cpp:166)
fix		bal all balance 10000 1.1 shift xyz 20 1.01

####################### Options specific to pouring #########################

region	     	insreg cylinder z 10 10 8 10 18 side in units box
region	    	cylreg cylinder z 10 10 10 0 20 side in units box

variable	theta equal (step/400000)*2*PI

region          b1 block 2 18 9 11 0 4 side out                 rotate v_theta 10 10 0 0 0 1 units box
region          b2 block 9 11 2 18 0 3.99999 side out                 rotate v_theta 10 10 0 0 0 1 units box

region		mixer intersect 3 cylreg b1 b2 side in

fix		grav all gravity ${gravity} vector 0 0 -1
fix		grav all gravity 1 vector 0 0 -1
fix		1 all nve/sphere

fix		mixwall all wall/gran/region hertz/history                 ${kn} ${kt} ${gamma_n} ${gamma_t} ${coeffFric} 1 region mixer
fix		mixwall all wall/gran/region hertz/history                 100000 ${kt} ${gamma_n} ${gamma_t} ${coeffFric} 1 region mixer
fix		mixwall all wall/gran/region hertz/history                 100000 20000 ${gamma_n} ${gamma_t} ${coeffFric} 1 region mixer
fix		mixwall all wall/gran/region hertz/history                 100000 20000 806.699778405191 ${gamma_t} ${coeffFric} 1 region mixer
fix		mixwall all wall/gran/region hertz/history                 100000 20000 806.699778405191 403.349889202595 ${coeffFric} 1 region mixer
fix		mixwall all wall/gran/region hertz/history                 100000 20000 806.699778405191 403.349889202595 0.5 1 region mixer

fix		ins all pour 1000 1 42424 region insreg 		diam range ${dlo} ${dhi} dens ${density} ${density}
fix		ins all pour 1000 1 42424 region insreg 		diam range 0.6 ${dhi} dens ${density} ${density}
fix		ins all pour 1000 1 42424 region insreg 		diam range 0.6 1.2 dens ${density} ${density}
fix		ins all pour 1000 1 42424 region insreg 		diam range 0.6 1.2 dens 1 ${density}
fix		ins all pour 1000 1 42424 region insreg 		diam range 0.6 1.2 dens 1 1
Particle insertion: 444 every 84653 steps, 1000 by step 169307

#dump		1 all custom ${dumpfreq} ${name}_pour.dump #		id type mass diameter x y z

#dump		2 all image 4000 image.*.jpg type type #		axes yes 0.8 0.02 view 60 -30 zoom 1.5 #                box no 0.0 axes no 0.0 0.0
#dump_modify	2 pad 6

thermo_style	custom step cpu atoms ke v_theta
WARNING: New thermo_style command, previous thermo_modify settings will be lost (src/output.cpp:708)
thermo_modify	flush yes lost warn

run		200000
Per MPI rank memory allocation (min/avg/max) = 5.864 | 5.864 | 5.864 Mbytes
Step CPU Atoms KinEng v_theta 
       0            0        0           -0            0 
    1000  0.077490091      444           -0  0.015707963 
    2000   0.15114665      444           -0  0.031415927 
    3000   0.22235227      444           -0   0.04712389 
    4000   0.29338241      444           -0  0.062831853 
    5000   0.36434865      444           -0  0.078539816 
    6000    0.4352982      444           -0   0.09424778 
    7000   0.50694323      444           -0   0.10995574 
    8000   0.57845187      444           -0   0.12566371 
    9000     0.651757      444           -0   0.14137167 
   10000   0.72532868      444           -0   0.15707963 
   11000   0.79880238      444           -0    0.1727876 
   12000   0.87253189      444           -0   0.18849556 
   13000    0.9462409      444           -0   0.20420352 
   14000     1.019686      444           -0   0.21991149 
   15000     1.093339      444           -0   0.23561945 
   16000    1.1669679      444           -0   0.25132741 
   17000    1.2405779      444           -0   0.26703538 
   18000    1.3138671      444           -0   0.28274334 
   19000    1.3882113      444           -0    0.2984513 
   20000    1.4621234      444           -0   0.31415927 
   21000    1.5357442      444           -0   0.32986723 
   22000    1.6088319      444           -0   0.34557519 
   23000    1.6819673      444           -0   0.36128316 
   24000    1.7554269      444           -0   0.37699112 
   25000    1.8287849      444           -0   0.39269908 
   26000    1.9021297      444           -0   0.40840704 
   27000    1.9754512      444           -0   0.42411501 
   28000    2.0490117      444           -0   0.43982297 
   29000    2.1226225      444           -0   0.45553093 
   30000    2.1962435      444           -0    0.4712389 
   31000    2.2696178      444           -0   0.48694686 
   32000    2.3433661      444           -0   0.50265482 
   33000     2.416899      444           -0   0.51836279 
   34000    2.4905457      444           -0   0.53407075 
   35000    2.5638924      444           -0   0.54977871 
   36000    2.6372061      444           -0   0.56548668 
   37000     2.710357      444           -0   0.58119464 
   38000     2.783921      444           -0    0.5969026 
   39000     2.857039      444           -0   0.61261057 
   40000    2.9302933      444           -0   0.62831853 
   41000    3.0037334      444           -0   0.64402649 
   42000     3.077405      444           -0   0.65973446 
   43000    3.1511323      444           -0   0.67544242 
   44000    3.2248275      444           -0   0.69115038 
   45000    3.2986169      444           -0   0.70685835 
   46000      3.37255      444           -0   0.72256631 
   47000    3.4465024      444           -0   0.73827427 
   48000    3.5204468      444           -0   0.75398224 
   49000    3.5944512      444           -0    0.7696902 
   50000    3.6683693      444           -0   0.78539816 
   51000     3.742744      444           -0   0.80110613 
   52000    3.8170953      444           -0   0.81681409 
   53000    3.8915188      444           -0   0.83252205 
   54000    3.9662523      444           -0   0.84823002 
   55000    4.0429108      444           -0   0.86393798 
   56000    4.1211851      444           -0   0.87964594 
   57000    4.1993928      444           -0   0.89535391 
   58000    4.2779431      444           -0   0.91106187 
   59000    4.3572938      444           -0   0.92676983 
   60000    4.4363105      444           -0    0.9424778 
   61000    4.5150981      444           -0   0.95818576 
   62000    4.5938442      444           -0   0.97389372 
   63000    4.6729839      444           -0   0.98960169 
   64000     4.752264      444           -0    1.0053096 
   65000    4.8321769      444           -0    1.0210176 
   66000    4.9119225      444           -0    1.0367256 
   67000     4.991966      444           -0    1.0524335 
   68000    5.0726445      444           -0    1.0681415 
   69000    5.1535997      444           -0    1.0838495 
   70000    5.2344592      444           -0    1.0995574 
   71000     5.314779      444           -0    1.1152654 
   72000    5.3960636      444           -0    1.1309734 
   73000    5.4774992      444           -0    1.1466813 
   74000    5.5596261      444           -0    1.1623893 
   75000    5.6421072      444           -0    1.1780972 
   76000    5.7245975      444           -0    1.1938052 
   77000      5.80632      444           -0    1.2095132 
   78000    5.8886087      444           -0    1.2252211 
   79000    5.9711385      444           -0    1.2409291 
   80000    6.0538728      444           -0    1.2566371 
   81000    6.1372418      444           -0     1.272345 
   82000    6.2206075      444           -0     1.288053 
   83000    6.3042254      444           -0     1.303761 
   84000    6.3880789      444           -0    1.3194689 
   85000    6.5043569      888           -0    1.3351769 
   86000    6.6656163      888           -0    1.3508848 
   87000    6.8272963      888           -0    1.3665928 
   88000    6.9885843      888           -0    1.3823008 
   89000    7.1502304      888           -0    1.3980087 
   90000    7.3121567      888           -0    1.4137167 
   91000    7.4754076      888           -0    1.4294247 
   92000    7.6377077      888           -0    1.4451326 
   93000    7.7955773      888           -0    1.4608406 
   94000    7.9529321      888           -0    1.4765485 
   95000    8.1115367      888           -0    1.4922565 
   96000    8.2695413      888           -0    1.5079645 
   97000    8.4287164      888           -0    1.5236724 
   98000    8.5897541      888           -0    1.5393804 
   99000    8.7492857      888           -0    1.5550884 
  100000    8.9095125      888           -0    1.5707963 
  101000    9.0715532      888           -0    1.5865043 
  102000    9.2330673      888           -0    1.6022123 
  103000    9.3958476      888           -0    1.6179202 
  104000    9.5590076      888           -0    1.6336282 
  105000     9.721889      888           -0    1.6493361 
  106000    9.8851972      888           -0    1.6650441 
  107000    10.047996      888           -0    1.6807521 
  108000    10.211874      888           -0      1.69646 
  109000    10.380595      888           -0     1.712168 
  110000     10.55089      888           -0     1.727876 
  111000    10.720645      888           -0    1.7435839 
  112000    10.889926      888           -0    1.7592919 
  113000    11.059191      888           -0    1.7749998 
  114000    11.229073      888           -0    1.7907078 
  115000    11.399253      888           -0    1.8064158 
  116000     11.56951      888           -0    1.8221237 
  117000    11.738943      888           -0    1.8378317 
  118000    11.908632      888           -0    1.8535397 
  119000    12.079338      888           -0    1.8692476 
  120000    12.250539      888           -0    1.8849556 
  121000    12.420974      888           -0    1.9006636 
  122000    12.592019      888           -0    1.9163715 
  123000    12.764429      888           -0    1.9320795 
  124000    12.936641      888           -0    1.9477874 
  125000    13.108346      888           -0    1.9634954 
  126000    13.280292      888           -0    1.9792034 
  127000    13.452749      888           -0    1.9949113 
  128000    13.626487      888           -0    2.0106193 
  129000    13.799383      888           -0    2.0263273 
  130000    13.972437      888           -0    2.0420352 
  131000     14.14559      888           -0    2.0577432 
  132000    14.319381      888           -0    2.0734512 
  133000    14.491611      888           -0    2.0891591 
  134000    14.664737      888           -0    2.1048671 
  135000    14.838604      888           -0     2.120575 
  136000    15.013832      888           -0     2.136283 
  137000    15.188951      888           -0     2.151991 
  138000    15.363249      888           -0    2.1676989 
  139000    15.540816      888           -0    2.1834069 
  140000    15.716089      888           -0    2.1991149 
  141000    15.892006      888           -0    2.2148228 
  142000     16.06576      888           -0    2.2305308 
  143000    16.240035      888           -0    2.2462387 
  144000    16.417248      888           -0    2.2619467 
  145000    16.595267      888           -0    2.2776547 
  146000    16.772563      888           -0    2.2933626 
  147000    16.950156      888           -0    2.3090706 
  148000    17.130437      888           -0    2.3247786 
  149000    17.310773      888           -0    2.3404865 
  150000    17.494205      888           -0    2.3561945 
  151000    17.675958      888           -0    2.3719025 
  152000    17.857789      888           -0    2.3876104 
  153000     18.03982      888           -0    2.4033184 
  154000    18.223682      888           -0    2.4190263 
  155000    18.422179      888           -0    2.4347343 
  156000    18.625518      888           -0    2.4504423 
  157000    18.826347      888           -0    2.4661502 
  158000    19.029445      888           -0    2.4818582 
  159000    19.232024      888           -0    2.4975662 
  160000     19.43527      888           -0    2.5132741 
  161000    19.638305      888           -0    2.5289821 
  162000    19.841174      888           -0      2.54469 
  163000     20.04339      888           -0     2.560398 
  164000    20.248471      888           -0     2.576106 
  165000    20.456806      888           -0    2.5918139 
  166000    20.662484      888           -0    2.6075219 
  167000    20.870419      888           -0    2.6232299 
  168000    21.079159      888           -0    2.6389378 
  169000    21.289627      888           -0    2.6546458 
  170000     21.51791     1000           -0    2.6703538 
  171000    21.751771     1000           -0    2.6860617 
  172000    21.987609     1000           -0    2.7017697 
  173000    22.221341     1000           -0    2.7174776 
  174000    22.455853     1000           -0    2.7331856 
  175000    22.690486     1000           -0    2.7488936 
  176000    22.921947     1000           -0    2.7646015 
  177000    23.153901     1000           -0    2.7803095 
  178000    23.386796     1000           -0    2.7960175 
  179000    23.619256     1000           -0    2.8117254 
  180000    23.854004     1000           -0    2.8274334 
  181000    24.089801     1000           -0    2.8431414 
  182000     24.32859     1000           -0    2.8588493 
  183000    24.569366     1000           -0    2.8745573 
  184000    24.808141     1000           -0    2.8902652 
  185000    25.047889     1000           -0    2.9059732 
  186000    25.288487     1000           -0    2.9216812 
  187000    25.527785     1000           -0    2.9373891 
  188000    25.767449     1000           -0    2.9530971 
  189000    26.009194     1000           -0    2.9688051 
  190000    26.251243     1000           -0     2.984513 
  191000    26.489378     1000           -0     3.000221 
  192000    26.728542     1000           -0    3.0159289 
  193000    26.959384     1000           -0    3.0316369 
  194000     27.19043     1000           -0    3.0473449 
  195000    27.421343     1000           -0    3.0630528 
  196000    27.652022     1000           -0    3.0787608 
  197000    27.883845     1000           -0    3.0944688 
  198000    28.115971     1000           -0    3.1101767 
  199000    28.347276     1000           -0    3.1258847 
  200000    28.579638     1000           -0    3.1415927 
Loop time of 28.5797 on 1 procs for 200000 steps with 1000 atoms

Performance: 28569.495 tau/day, 6997.985 timesteps/s
99.8% CPU use with 1 MPI tasks x no OpenMP threads

MPI task timing breakdown:
Section |  min time  |  avg time  |  max time  |%varavg| %total
---------------------------------------------------------------
Pair    | 2.0381     | 2.0381     | 2.0381     |   0.0 |  7.13
Neigh   | 0.044673   | 0.044673   | 0.044673   |   0.0 |  0.16
Comm    | 0.26604    | 0.26604    | 0.26604    |   0.0 |  0.93
Output  | 0.0031247  | 0.0031247  | 0.0031247  |   0.0 |  0.01
Modify  | 25.801     | 25.801     | 25.801     |   0.0 | 90.28
Other   |            | 0.4267     |            |       |  1.49

Nlocal:    1000 ave 1000 max 1000 min
Histogram: 1 0 0 0 0 0 0 0 0 0
Nghost:    207 ave 207 max 207 min
Histogram: 1 0 0 0 0 0 0 0 0 0
Neighs:    3723 ave 3723 max 3723 min
Histogram: 1 0 0 0 0 0 0 0 0 0

Total # of neighbors = 3723
Ave neighs/atom = 3.723
Neighbor list builds = 206
Dangerous builds = 0
unfix 		ins
run		200000
Per MPI rank memory allocation (min/avg/max) = 11.89 | 11.89 | 11.89 Mbytes
Step CPU Atoms KinEng v_theta 
  200000            0     1000    1.0303642    3.1415927 
  201000   0.23141289     1000    1.0257316    3.1573006 
  202000   0.46411896     1000    1.0136181    3.1730086 
  203000   0.69733691     1000   0.99871354    3.1887165 
  204000    0.9295752     1000   0.98044984    3.2044245 
  205000     1.159869     1000   0.97509024    3.2201325 
  206000    1.3916175     1000   0.96221645    3.2358404 
  207000    1.6226177     1000   0.95697348    3.2515484 
  208000    1.8531024     1000   0.95550555    3.2672564 
  209000    2.0931134     1000    0.9436186    3.2829643 
  210000    2.3318744     1000   0.91975691    3.2986723 
  211000    2.5687418     1000   0.90816182    3.3143802 
  212000    2.8064594     1000   0.89555345    3.3300882 
  213000    3.0447168     1000   0.87668966    3.3457962 
  214000    3.2839057     1000    0.8696343    3.3615041 
  215000    3.5246074     1000   0.88592139    3.3772121 
  216000    3.7639945     1000   0.87863054    3.3929201 
  217000    4.0057752     1000   0.87700069     3.408628 
  218000    4.2467554     1000   0.87003807     3.424336 
  219000    4.4880965     1000   0.86269219     3.440044 
  220000    4.7297077     1000   0.85894169    3.4557519 
  221000    4.9706657     1000   0.86041873    3.4714599 
  222000    5.2164137     1000   0.84840493    3.4871678 
  223000     5.461519     1000   0.84369227    3.5028758 
  224000    5.7101524     1000   0.85514784    3.5185838 
  225000    5.9577258     1000   0.85613923    3.5342917 
  226000    6.2047982     1000   0.86097604    3.5499997 
  227000    6.4532804     1000   0.87894562    3.5657077 
  228000    6.7019951     1000   0.88904937    3.5814156 
  229000    6.9506388     1000   0.87952686    3.5971236 
  230000    7.1956406     1000   0.87799035    3.6128316 
  231000    7.4368479     1000   0.87444772    3.6285395 
  232000    7.6792092     1000   0.87155474    3.6442475 
  233000    7.9242816     1000   0.86989881    3.6599554 
  234000    8.1686423     1000   0.85882236    3.6756634 
  235000    8.4121087     1000   0.85067389    3.6913714 
  236000    8.6575055     1000     0.853544    3.7070793 
  237000    8.9043386     1000   0.85633489    3.7227873 
  238000    9.1528232     1000   0.85180785    3.7384953 
  239000    9.4007165     1000   0.87395627    3.7542032 
  240000    9.6517951     1000   0.88822129    3.7699112 
  241000    9.9017959     1000    0.8909491    3.7856191 
  242000    10.152106     1000   0.88860759    3.8013271 
  243000    10.403842     1000   0.88312615    3.8170351 
  244000    10.654388     1000   0.88711544     3.832743 
  245000    10.903526     1000   0.88384611     3.848451 
  246000     11.15315     1000   0.87390152     3.864159 
  247000    11.403131     1000   0.87810245    3.8798669 
  248000    11.651978     1000   0.86309471    3.8955749 
  249000    11.898763     1000   0.86138117    3.9112829 
  250000     12.14775     1000   0.85938764    3.9269908 
  251000    12.394912     1000   0.85138001    3.9426988 
  252000    12.642779     1000   0.83863724    3.9584067 
  253000     12.89282     1000   0.80833484    3.9741147 
  254000    13.142421     1000    0.7966136    3.9898227 
  255000    13.389397     1000   0.79654649    4.0055306 
  256000    13.637453     1000   0.79016291    4.0212386 
  257000    13.884864     1000    0.7961665    4.0369466 
  258000    14.134201     1000   0.78836154    4.0526545 
  259000    14.384426     1000   0.78364145    4.0683625 
  260000    14.636156     1000   0.76399437    4.0840704 
  261000    14.887678     1000   0.75300276    4.0997784 
  262000     15.13984     1000   0.74367807    4.1154864 
  263000    15.391755     1000   0.74385254    4.1311943 
  264000    15.643103     1000   0.75344519    4.1469023 
  265000    15.895358     1000   0.76215004    4.1626103 
  266000    16.146679     1000   0.76773127    4.1783182 
  267000    16.400337     1000   0.77488809    4.1940262 
  268000    16.656281     1000   0.77421551    4.2097342 
  269000    16.909974     1000   0.77261554    4.2254421 
  270000    17.164432     1000   0.76078375    4.2411501 
  271000    17.417863     1000   0.74630249     4.256858 
  272000    17.671817     1000   0.74394679     4.272566 
  273000     17.92816     1000   0.74319222     4.288274 
  274000    18.184014     1000    0.7468261    4.3039819 
  275000    18.437005     1000   0.73754318    4.3196899 
  276000    18.688573     1000   0.74489387    4.3353979 
  277000    18.943383     1000   0.75692002    4.3511058 
  278000    19.198684     1000   0.76240928    4.3668138 
  279000    19.452993     1000   0.76550551    4.3825218 
  280000    19.707649     1000   0.75310267    4.3982297 
  281000    19.961842     1000   0.73720818    4.4139377 
  282000    20.216042     1000   0.73819534    4.4296456 
  283000    20.469711     1000   0.72931354    4.4453536 
  284000    20.719008     1000   0.73654474    4.4610616 
  285000     20.96664     1000   0.72749361    4.4767695 
  286000    21.214933     1000   0.72585163    4.4924775 
  287000    21.461941     1000   0.72231951    4.5081855 
  288000    21.711386     1000   0.72721776    4.5238934 
  289000    21.961666     1000   0.74002595    4.5396014 
  290000     22.21122     1000   0.73945028    4.5553093 
  291000    22.459422     1000   0.74390122    4.5710173 
  292000    22.706224     1000   0.73874037    4.5867253 
  293000    22.947363     1000   0.73550027    4.6024332 
  294000    23.188783     1000   0.73551658    4.6181412 
  295000    23.430584     1000   0.73465414    4.6338492 
  296000    23.672972     1000   0.73022334    4.6495571 
  297000    23.916757     1000   0.72607572    4.6652651 
  298000    24.162805     1000   0.72579775    4.6809731 
  299000    24.408415     1000   0.73156415     4.696681 
  300000    24.652243     1000   0.73544632     4.712389 
  301000    24.893571     1000   0.72772476    4.7280969 
  302000    25.136059     1000   0.71076843    4.7438049 
  303000    25.376946     1000   0.70558821    4.7595129 
  304000    25.618988     1000    0.7077768    4.7752208 
  305000    25.860607     1000   0.71738031    4.7909288 
  306000    26.099715     1000   0.72012051    4.8066368 
  307000    26.343761     1000   0.72122982    4.8223447 
  308000    26.585765     1000   0.72476878    4.8380527 
  309000     26.83664     1000   0.72407218    4.8537606 
  310000     27.08977     1000   0.72240869    4.8694686 
  311000    27.342578     1000   0.71458107    4.8851766 
  312000    27.591233     1000   0.70219549    4.9008845 
  313000    27.839496     1000   0.69348395    4.9165925 
  314000    28.087562     1000   0.68592133    4.9323005 
  315000    28.334556     1000   0.67983122    4.9480084 
  316000    28.582311     1000   0.67283092    4.9637164 
  317000    28.831911     1000     0.663817    4.9794244 
  318000    29.081456     1000   0.65971598    4.9951323 
  319000    29.331917     1000   0.65449281    5.0108403 
  320000    29.583903     1000   0.64586225    5.0265482 
  321000    29.834784     1000   0.63399651    5.0422562 
  322000    30.085815     1000   0.63350733    5.0579642 
  323000     30.33625     1000   0.63179211    5.0736721 
  324000    30.589466     1000   0.62302851    5.0893801 
  325000    30.845259     1000   0.61364935    5.1050881 
  326000    31.103464     1000   0.61348896     5.120796 
  327000    31.371263     1000   0.62469225     5.136504 
  328000    31.630038     1000   0.64367619     5.152212 
  329000    31.889074     1000   0.67021556    5.1679199 
  330000    32.150014     1000   0.68647578    5.1836279 
  331000    32.408366     1000    0.6900021    5.1993358 
  332000    32.665296     1000    0.6883604    5.2150438 
  333000    32.922207     1000   0.70199143    5.2307518 
  334000    33.175401     1000   0.70327661    5.2464597 
  335000    33.427963     1000   0.70044741    5.2621677 
  336000    33.680113     1000   0.69230818    5.2778757 
  337000    33.933003     1000   0.68395004    5.2935836 
  338000    34.185264     1000   0.68663814    5.3092916 
  339000    34.434959     1000   0.69149983    5.3249995 
  340000    34.684123     1000   0.68512612    5.3407075 
  341000    34.933656     1000   0.67416444    5.3564155 
  342000    35.188894     1000   0.66442296    5.3721234 
  343000    35.441741     1000   0.67002481    5.3878314 
  344000    35.696369     1000   0.68187342    5.4035394 
  345000    35.950388     1000   0.68537768    5.4192473 
  346000    36.204088     1000   0.68327927    5.4349553 
  347000    36.455477     1000   0.68132595    5.4506633 
  348000    36.704168     1000   0.68570089    5.4663712 
  349000    36.953588     1000   0.69080534    5.4820792 
  350000    37.205494     1000    0.6893697    5.4977871 
  351000    37.457494     1000   0.69478719    5.5134951 
  352000    37.709393     1000   0.68954334    5.5292031 
  353000    37.959376     1000   0.69023483     5.544911 
  354000    38.211788     1000   0.68785702     5.560619 
  355000     38.46582     1000   0.68745844     5.576327 
  356000    38.721724     1000   0.68631438    5.5920349 
  357000    38.980584     1000   0.67935592    5.6077429 
  358000    39.238308     1000   0.67827598    5.6234508 
  359000    39.497693     1000   0.67769404    5.6391588 
  360000    39.755391     1000   0.68354044    5.6548668 
  361000    40.011947     1000   0.68389543    5.6705747 
  362000    40.269048     1000   0.67885738    5.6862827 
  363000    40.526266     1000   0.67755973    5.7019907 
  364000    40.785913     1000   0.68417416    5.7176986 
  365000    41.046944     1000   0.68593538    5.7334066 
  366000    41.304382     1000   0.68453161    5.7491146 
  367000    41.562993     1000   0.68832852    5.7648225 
  368000    41.822647     1000   0.70395513    5.7805305 
  369000    42.087179     1000   0.70230217    5.7962384 
  370000    42.351596     1000   0.70792375    5.8119464 
  371000    42.611665     1000   0.70388065    5.8276544 
  372000    42.873473     1000   0.70228003    5.8433623 
  373000    43.131788     1000   0.70996707    5.8590703 
  374000    43.389537     1000   0.72407167    5.8747783 
  375000    43.645054     1000   0.72793919    5.8904862 
  376000    43.899628     1000   0.71857586    5.9061942 
  377000    44.155486     1000   0.71066792    5.9219022 
  378000     44.40707     1000   0.72453278    5.9376101 
  379000    44.658462     1000   0.72491037    5.9533181 
  380000    44.909951     1000   0.73250588     5.969026 
  381000    45.161131     1000   0.72865863     5.984734 
  382000    45.413778     1000   0.72395115     6.000442 
  383000    45.664677     1000   0.72646137    6.0161499 
  384000    45.915159     1000   0.72343221    6.0318579 
  385000    46.165004     1000   0.70602989    6.0475659 
  386000    46.413325     1000   0.70196226    6.0632738 
  387000    46.664912     1000   0.69802904    6.0789818 
  388000    46.917045     1000   0.70087296    6.0946897 
  389000    47.172804     1000   0.70833512    6.1103977 
  390000     47.42892     1000    0.7089087    6.1261057 
  391000     47.68066     1000   0.70507876    6.1418136 
  392000    47.935263     1000   0.70367324    6.1575216 
  393000    48.182728     1000   0.71750583    6.1732296 
  394000    48.429376     1000   0.71457632    6.1889375 
  395000    48.673715     1000   0.70679148    6.2046455 
  396000    48.917845     1000    0.6979168    6.2203535 
  397000    49.164254     1000   0.69335542    6.2360614 
  398000    49.411565     1000   0.69292649    6.2517694 
  399000    49.659255     1000   0.69490302    6.2674773 
  400000    49.907391     1000   0.68484682    6.2831853 
Loop time of 49.9074 on 1 procs for 200000 steps with 1000 atoms

Performance: 16360.424 tau/day, 4007.421 timesteps/s
99.8% CPU use with 1 MPI tasks x no OpenMP threads

MPI task timing breakdown:
Section |  min time  |  avg time  |  max time  |%varavg| %total
---------------------------------------------------------------
Pair    | 6.7118     | 6.7118     | 6.7118     |   0.0 | 13.45
Neigh   | 0.06788    | 0.06788    | 0.06788    |   0.0 |  0.14
Comm    | 0.84693    | 0.84693    | 0.84693    |   0.0 |  1.70
Output  | 0.0038872  | 0.0038872  | 0.0038872  |   0.0 |  0.01
Modify  | 41.667     | 41.667     | 41.667     |   0.0 | 83.49
Other   |            | 0.6103     |            |       |  1.22

Nlocal:    1000 ave 1000 max 1000 min
Histogram: 1 0 0 0 0 0 0 0 0 0
Nghost:    279 ave 279 max 279 min
Histogram: 1 0 0 0 0 0 0 0 0 0
Neighs:    5032 ave 5032 max 5032 min
Histogram: 1 0 0 0 0 0 0 0 0 0

Total # of neighbors = 5032
Ave neighs/atom = 5.032
Neighbor list builds = 158
Dangerous builds = 0
Total wall time: 0:01:18
