LAMMPS (30 Oct 2019)
# pouring spheres into container box

units		lj
atom_style      sphere
boundary        f f f
dimension	3
comm_modify     vel yes

region          box block -10 10 -10 10 -10 10 units box
create_box      2 box
Created orthogonal box = (-10 -10 -10) to (10 10 10)
  1 by 1 by 1 MPI processor grid

pair_style	hybrid gran/hooke 4000.0 NULL 100.0 NULL 0.5 1
pair_coeff	* * gran/hooke

region          container block -6 6 -6 6 -6 6 units box
fix		container all wall/gran/region hooke/history 		4000.0 NULL 100.0 NULL 0.5 1 region container

neighbor	0.3 bin
neigh_modify	delay 0 every 1 check yes

fix             2 all nve/sphere
fix		3 all gravity 1.0 vector 0 0 -1

region          slab block -2 2 -2 2 -2 2 units box
fix             ins all pour 100 2 4767548 vol 0.4 10 	        diam one 1.0 region slab ignore
Particle insertion: 48 every 566 steps, 100 by step 1133

timestep	0.005

compute         1 all temp
compute_modify  1 dynamic/dof yes

compute         2 all temp/sphere
compute_modify  2 dynamic/dof yes

thermo		100
thermo_style	custom step atoms temp c_1 c_2 press
thermo_modify   lost ignore
compute_modify  thermo_temp dynamic/dof yes

#dump		2 all image 100 image.*.jpg type type #		zoom 1.4 adiam 1.0 box no 0.0 axes yes 0.9 0.03
#dump_modify	2 pad 5

run	        5000
Neighbor list info ...
  update every 1 steps, delay 0 steps, check yes
  max neighbors/atom: 2000, page size: 100000
  master list distance cutoff = 1.3
  ghost atom cutoff = 1.3
  binsize = 0.65, bins = 31 31 31
  1 neighbor lists, perpetual/occasional/extra = 1 0 0
  (1) pair gran/hooke, perpetual
      attributes: half, newton on, size
      pair build: half/size/bin/newton
      stencil: half/bin/3d/newton
      bin: standard
Per MPI rank memory allocation (min/avg/max) = 0.5861 | 0.5861 | 0.5861 Mbytes
Step Atoms Temp c_1 c_2 Press 
       0        0            0            0            0            0 
     100       30     0.803783     0.803783   0.39507978 0.0029137134 
     200       30    1.1967995    1.1967995    0.5882574 0.0043383984 
     300       30    1.2814686    1.2814686   0.62987441 0.0046453238 
     400       30   0.82043046   0.82043046   0.41050731 0.0029740604 
     500       30   0.76864192   0.76864192   0.38816336 0.0044954338 
     600       64   0.50841254   0.50841254   0.26231777 0.0068620331 
     700       64   0.57312354   0.57312354    0.2951111 0.0045133479 
     800       64   0.61999479   0.61999479   0.32020689 0.0055941605 
     900       64   0.50706975   0.50706975   0.27509238 0.0049740422 
    1000       64   0.44769017   0.44769017   0.24740753 0.0061199917 
    1100       64   0.46844082   0.46844082   0.25873583  0.012044524 
    1200       99   0.44186391   0.44186391   0.24318944 0.0093892395 
    1300       99   0.40702018   0.40702018   0.22265402 0.0095541679 
    1400       99   0.37891717   0.37891717   0.21347799 0.0085409092 
    1500       99   0.35363858   0.35363858   0.19918786 0.0094822925 
    1600       99   0.26581207   0.26581207   0.15443602 0.0045091905 
    1700      100   0.22134602   0.22134602   0.13025386 0.0033871431 
    1800      100   0.11363577   0.11363577  0.073811338 0.0056343087 
    1900      100  0.067533257  0.067533257  0.049248565 0.00097763624 
    2000      100  0.059761466  0.059761466  0.041501479 0.0018004174 
    2100      100  0.057563172  0.057563172  0.038368179 0.0011982027 
    2200      100  0.048540749  0.048540749  0.031306954 0.0009205509 
    2300      100  0.028187669  0.028187669  0.021031006 0.0004077504 
    2400      100  0.018629911  0.018629911  0.015374166 0.00031822388 
    2500      100  0.019012178  0.019012178  0.014543573 0.00091988716 
    2600      100 0.0099499339 0.0099499339 0.0080361217 0.00016534183 
    2700      100 0.0090554178 0.0090554178 0.0072025912 0.00018113623 
    2800      100 0.0068043503 0.0068043503 0.0057036401 0.00047815149 
    2900      100 0.0060455087 0.0060455087 0.0051140939 0.00041493668 
    3000      100  0.004994374  0.004994374 0.0042963716 0.00019468168 
    3100      100 0.0035961151 0.0035961151 0.0030262386 0.00026223306 
    3200      100 0.0033240276 0.0033240276 0.0028023968 0.00010877813 
    3300      100 0.0027198761 0.0027198761 0.0023770039 0.00011636372 
    3400      100 0.0023957718 0.0023957718 0.0021012267 0.00033412765 
    3500      100 0.0022104555 0.0022104555 0.0019029316 0.00048511898 
    3600      100 0.0016083029 0.0016083029 0.0014235671 5.9463728e-05 
    3700      100 0.0012882289 0.0012882289 0.0011639005 0.00010090241 
    3800      100 0.0011734356 0.0011734356 0.0010717782 6.1420729e-05 
    3900      100 0.0010109412 0.0010109412 0.00094692403 5.7016959e-05 
    4000      100 0.00096551761 0.00096551761 0.00090615585 8.6722486e-05 
    4100      100 0.00075309072 0.00075309072 0.00070678351 4.9503237e-05 
    4200      100 0.00065947871 0.00065947871 0.00062298053 0.00017620728 
    4300      100 0.00051535858 0.00051535858 0.00051088421 6.0209231e-05 
    4400      100 0.00039042856 0.00039042856 0.00041074792 0.00011048321 
    4500      100 0.00031801865 0.00031801865 0.00032398382 0.00013798774 
    4600      100 0.00030828701 0.00030828701 0.00031159249 8.0732301e-05 
    4700      100 0.00028932688 0.00028932688 0.00028751095 7.9194979e-05 
    4800      100 0.00028683139 0.00028683139 0.0002805017 6.7291418e-05 
    4900      100  0.000292515  0.000292515 0.00028359843 6.684972e-05 
    5000      100 0.00027783406 0.00027783406 0.00027075048 8.0071452e-05 
Loop time of 0.0420303 on 1 procs for 5000 steps with 100 atoms

Performance: 51391453.984 tau/day, 118961.699 timesteps/s
99.7% CPU use with 1 MPI tasks x no OpenMP threads

MPI task timing breakdown:
Section |  min time  |  avg time  |  max time  |%varavg| %total
---------------------------------------------------------------
Pair    | 0.0051229  | 0.0051229  | 0.0051229  |   0.0 | 12.19
Neigh   | 0.0078154  | 0.0078154  | 0.0078154  |   0.0 | 18.59
Comm    | 0.00049305 | 0.00049305 | 0.00049305 |   0.0 |  1.17
Output  | 0.00026011 | 0.00026011 | 0.00026011 |   0.0 |  0.62
Modify  | 0.026067   | 0.026067   | 0.026067   |   0.0 | 62.02
Other   |            | 0.002272   |            |       |  5.41

Nlocal:    100 ave 100 max 100 min
Histogram: 1 0 0 0 0 0 0 0 0 0
Nghost:    0 ave 0 max 0 min
Histogram: 1 0 0 0 0 0 0 0 0 0
Neighs:    158 ave 158 max 158 min
Histogram: 1 0 0 0 0 0 0 0 0 0

Total # of neighbors = 158
Ave neighs/atom = 1.58
Neighbor list builds = 275
Dangerous builds = 0

region          container delete
variable        theta equal (step-5000)*(4.0*PI/5000)
region          container block -6 6 -6 6 -6 6 units box                 rotate v_theta 0 0 0 0 0 1
run	        5000
Per MPI rank memory allocation (min/avg/max) = 5.837 | 5.837 | 5.837 Mbytes
Step Atoms Temp c_1 c_2 Press 
    5000      100 0.00027783406 0.00027783406 0.00027075048 7.9082623e-05 
    5100      100   0.73378834   0.73378834   0.39470383  0.011331462 
    5200      100   0.77322012   0.77322012   0.41006218  0.010185413 
    5300      100   0.82750887   0.82750887   0.43290128  0.012809361 
    5400      100   0.86729868   0.86729868   0.44815124  0.011753532 
    5500      100   0.93841865   0.93841865   0.47982911  0.015012517 
    5600      100   0.98093499   0.98093499   0.49974305  0.017956287 
    5700      100    1.0268998    1.0268998   0.52404923  0.014481241 
    5800      100    1.0710367    1.0710367   0.54471226  0.016248473 
    5900      100    1.0956962    1.0956962   0.55682201  0.017568907 
    6000      100    1.1519114    1.1519114   0.58363596   0.02022674 
    6100      100    1.2046439    1.2046439   0.60849725  0.017701325 
    6200      100     1.219732     1.219732   0.61511139   0.01925169 
    6300      100    1.2515468    1.2515468   0.63077576  0.019020582 
    6400      100    1.2741194    1.2741194   0.64189041  0.020233974 
    6500      100    1.2830325    1.2830325   0.64454596   0.02059756 
    6600      100    1.2977209    1.2977209   0.65151626  0.022080664 
    6700      100    1.2980209    1.2980209   0.65130041   0.02223705 
    6800      100    1.3104276    1.3104276   0.65805043  0.021865596 
    6900      100    1.3183239    1.3183239   0.66197589    0.0213069 
    7000      100    1.3163388    1.3163388   0.66040682  0.021470732 
    7100      100    1.3168701    1.3168701   0.66025322  0.022288211 
    7200      100    1.3261441    1.3261441   0.66405147  0.022006061 
    7300      100    1.3297819    1.3297819   0.66590973  0.022656373 
    7400      100    1.3377972    1.3377972   0.67017622  0.022159382 
    7500      100    1.3490093    1.3490093   0.67475946  0.022609894 
    7600      100    1.3497233    1.3497233   0.67517168  0.021849542 
    7700      100    1.3555643    1.3555643   0.67811918  0.022627415 
    7800      100     1.361024     1.361024   0.67962542  0.021938701 
    7900      100    1.3626338    1.3626338   0.68053658  0.021755313 
    8000      100    1.3615155    1.3615155   0.68025713  0.022180279 
    8100      100    1.3733513    1.3733513   0.68578764  0.022186223 
    8200      100    1.3724456    1.3724456   0.68528551  0.022029404 
    8300      100     1.370622     1.370622   0.68446749  0.022225582 
    8400      100    1.3749184    1.3749184    0.6866565  0.022484878 
    8500      100    1.3758554    1.3758554   0.68723611  0.022650818 
    8600      100    1.3743551    1.3743551   0.68633427  0.022436494 
    8700      100    1.3746966    1.3746966   0.68656655  0.022393948 
    8800      100    1.3746965    1.3746965    0.6866338  0.022184725 
    8900      100    1.3776761    1.3776761   0.68793106  0.022456366 
    9000      100     1.378153     1.378153   0.68818053  0.022476154 
    9100      100    1.3788547    1.3788547    0.6885312  0.022578289 
    9200      100    1.3795366    1.3795366   0.68887608  0.023084863 
    9300      100    1.3794645    1.3794645   0.68884717  0.023051271 
    9400      100    1.3795077    1.3795077   0.68887344  0.023134006 
    9500      100    1.3795487    1.3795487    0.6888981  0.023060148 
    9600      100    1.3800203    1.3800203   0.68913795  0.023242234 
    9700      100    1.3802209    1.3802209   0.68923552  0.023318921 
    9800      100    1.3807854    1.3807854   0.68951699   0.02329487 
    9900      100    1.3809025    1.3809025   0.68957575  0.023327034 
   10000      100     1.381054     1.381054   0.68965024  0.023458037 
Loop time of 0.140148 on 1 procs for 5000 steps with 100 atoms

Performance: 15412286.760 tau/day, 35676.590 timesteps/s
99.8% CPU use with 1 MPI tasks x no OpenMP threads

MPI task timing breakdown:
Section |  min time  |  avg time  |  max time  |%varavg| %total
---------------------------------------------------------------
Pair    | 0.022038   | 0.022038   | 0.022038   |   0.0 | 15.72
Neigh   | 0.018972   | 0.018972   | 0.018972   |   0.0 | 13.54
Comm    | 0.00060415 | 0.00060415 | 0.00060415 |   0.0 |  0.43
Output  | 0.00025892 | 0.00025892 | 0.00025892 |   0.0 |  0.18
Modify  | 0.095789   | 0.095789   | 0.095789   |   0.0 | 68.35
Other   |            | 0.002487   |            |       |  1.77

Nlocal:    100 ave 100 max 100 min
Histogram: 1 0 0 0 0 0 0 0 0 0
Nghost:    0 ave 0 max 0 min
Histogram: 1 0 0 0 0 0 0 0 0 0
Neighs:    189 ave 189 max 189 min
Histogram: 1 0 0 0 0 0 0 0 0 0

Total # of neighbors = 189
Ave neighs/atom = 1.89
Neighbor list builds = 626
Dangerous builds = 0

region          container delete
region          container block -6 6 -6 6 -6 6 units box
run             5000
Per MPI rank memory allocation (min/avg/max) = 5.837 | 5.837 | 5.837 Mbytes
Step Atoms Temp c_1 c_2 Press 
   10000      100     1.381054     1.381054   0.68965024  0.023506939 
   10100      100   0.27290592   0.27290592   0.15692215 0.0078060895 
   10200      100   0.13406795   0.13406795  0.085597393 0.0037214131 
   10300      100  0.086839869  0.086839869  0.064242829  0.003352117 
   10400      100  0.062138819  0.062138819  0.047154961 0.0022223562 
   10500      100  0.051390682  0.051390682  0.038760372 0.00093667156 
   10600      100   0.02955513   0.02955513  0.024383191 0.00041915335 
   10700      100  0.019326099  0.019326099  0.016483741 0.0012020755 
   10800      100  0.015970361  0.015970361  0.013585376 0.00045607032 
   10900      100  0.013774063  0.013774063  0.011828208 0.00044958306 
   11000      100  0.012074857  0.012074857  0.010640285 0.00012075142 
   11100      100  0.010425503  0.010425503 0.0093881801 0.00032162322 
   11200      100  0.009183151  0.009183151 0.0083900464 0.00033115939 
   11300      100 0.0086299098 0.0086299098 0.0078569763 0.00010948572 
   11400      100 0.0082020959 0.0082020959 0.0075637692 0.0001135186 
   11500      100 0.0075128732 0.0075128732 0.0068419402 9.2971805e-05 
   11600      100 0.0072552399 0.0072552399 0.0063095501 8.9280643e-05 
   11700      100 0.0069398016 0.0069398016 0.0060282432 9.2256673e-05 
   11800      100 0.0061901077 0.0061901077 0.0053725936 0.00015363897 
   11900      100 0.0057353018 0.0057353018 0.0048571842 7.8150846e-05 
   12000      100   0.00547998   0.00547998  0.004650411 6.7814753e-05 
   12100      100  0.005241565  0.005241565 0.0043228155 5.6555248e-05 
   12200      100 0.0051326904 0.0051326904 0.0042019298 5.5216221e-05 
   12300      100 0.0049442056 0.0049442056 0.0040342671 0.00017136187 
   12400      100 0.0047999376 0.0047999376 0.0039125899 5.9399227e-05 
   12500      100 0.0043913009 0.0043913009 0.0035620694 0.00017718397 
   12600      100 0.0040208964 0.0040208964 0.0033026448 5.5829032e-05 
   12700      100   0.00385362   0.00385362 0.0031717126 4.4647869e-05 
   12800      100 0.0033035802 0.0033035802 0.0027934073 6.537299e-05 
   12900      100 0.0031415109 0.0031415109 0.0026777877 7.5553865e-05 
   13000      100 0.0030557869 0.0030557869 0.0026045972 0.0001757753 
   13100      100 0.0029742696 0.0029742696 0.0025374834 3.6806586e-05 
   13200      100 0.0028524934 0.0028524934 0.0024363647 3.5299606e-05 
   13300      100 0.0025961961 0.0025961961 0.0022363379 3.2166077e-05 
   13400      100 0.0024712245 0.0024712245  0.002119076 3.4546933e-05 
   13500      100 0.0024101071 0.0024101071 0.0020557214 3.9561633e-05 
   13600      100   0.00234963   0.00234963 0.0020104557 0.00010209492 
   13700      100 0.0023106909 0.0023106909 0.0019640524  2.85948e-05 
   13800      100 0.0022314007 0.0022314007 0.0019014422 4.7178248e-05 
   13900      100 0.0020724951 0.0020724951  0.001752762 7.088347e-05 
   14000      100 0.0018981939 0.0018981939 0.0016030836 0.0002037429 
   14100      100 0.0017927454 0.0017927454 0.0014992587 8.3408927e-05 
   14200      100   0.00175455   0.00175455 0.0014702827 2.9685081e-05 
   14300      100  0.001700086  0.001700086 0.0014191594 2.1890736e-05 
   14400      100  0.001648141  0.001648141 0.0013811022 7.4507578e-05 
   14500      100 0.0014650044 0.0014650044 0.0012540387 3.4194185e-05 
   14600      100 0.0013397664 0.0013397664 0.0011528496 1.7566194e-05 
   14700      100 0.0012307063 0.0012307063 0.0010533235 1.5229991e-05 
   14800      100 0.0012079473 0.0012079473 0.0010329015 1.4948348e-05 
   14900      100 0.0011700113 0.0011700113 0.0010044625 2.0700437e-05 
   15000      100 0.0011529627 0.0011529627 0.0009868684 1.4267914e-05 
Loop time of 0.0427916 on 1 procs for 5000 steps with 100 atoms

Performance: 50477190.566 tau/day, 116845.349 timesteps/s
98.0% CPU use with 1 MPI tasks x no OpenMP threads

MPI task timing breakdown:
Section |  min time  |  avg time  |  max time  |%varavg| %total
---------------------------------------------------------------
Pair    | 0.0044513  | 0.0044513  | 0.0044513  |   0.0 | 10.40
Neigh   | 0.0026643  | 0.0026643  | 0.0026643  |   0.0 |  6.23
Comm    | 0.0004015  | 0.0004015  | 0.0004015  |   0.0 |  0.94
Output  | 0.00026774 | 0.00026774 | 0.00026774 |   0.0 |  0.63
Modify  | 0.032719   | 0.032719   | 0.032719   |   0.0 | 76.46
Other   |            | 0.002288   |            |       |  5.35

Nlocal:    100 ave 100 max 100 min
Histogram: 1 0 0 0 0 0 0 0 0 0
Nghost:    0 ave 0 max 0 min
Histogram: 1 0 0 0 0 0 0 0 0 0
Neighs:    156 ave 156 max 156 min
Histogram: 1 0 0 0 0 0 0 0 0 0

Total # of neighbors = 156
Ave neighs/atom = 1.56
Neighbor list builds = 89
Dangerous builds = 0

region          container delete
variable        theta equal (step-15000)*(4.0*PI/5000)
region          container block -6 6 -6 6 -6 6 units box                 rotate v_theta 0 0 0 1 1 1
run	        5000
Per MPI rank memory allocation (min/avg/max) = 5.837 | 5.837 | 5.837 Mbytes
Step Atoms Temp c_1 c_2 Press 
   15000      100 0.0011529627 0.0011529627 0.0009868684 1.4267914e-05 
   15100      100     1.146107     1.146107   0.71290661  0.018409483 
   15200      100    1.1429918    1.1429918   0.71994596  0.014793315 
   15300      100    1.1952488    1.1952488   0.75711622   0.01647024 
   15400      100     1.431864     1.431864    0.9166001  0.019265157 
   15500      100    1.6424991    1.6424991    1.0239276  0.026959868 
   15600      100    1.7915373    1.7915373    1.0899763  0.025964305 
   15700      100    1.9298805    1.9298805    1.1582977  0.028800725 
   15800      100    1.9920927    1.9920927    1.1728178  0.035490299 
   15900      100    2.0438174    2.0438174    1.1846343  0.031128914 
   16000      100    2.2195362    2.2195362    1.2567303   0.03994578 
   16100      100    2.2965149    2.2965149    1.3017721  0.029524367 
   16200      100     2.194791     2.194791    1.2613901  0.028010727 
   16300      100    2.3343846    2.3343846    1.3285079   0.03169738 
   16400      100    2.3933453    2.3933453    1.3266354   0.03216478 
   16500      100    2.5899831    2.5899831    1.4280115  0.032953997 
   16600      100    2.5121118    2.5121118    1.3929943  0.033406588 
   16700      100    2.7306715    2.7306715    1.4985222  0.037750425 
   16800      100    2.8998037    2.8998037    1.5721723  0.044397617 
   16900      100    2.9216906    2.9216906    1.5804936  0.049316934 
   17000      100    3.0088093    3.0088093    1.6216746  0.041151074 
   17100      100    3.1097604    3.1097604      1.67841  0.040237739 
   17200      100    3.1685822    3.1685822     1.692666  0.048756104 
   17300      100    3.3795422    3.3795422    1.8191873  0.047037912 
   17400      100    3.1829684    3.1829684    1.7289753  0.051886067 
   17500      100    3.3259102    3.3259102    1.8103544  0.044791284 
   17600      100    3.1787424    3.1787424    1.7501693  0.046189572 
   17700      100     3.224179     3.224179    1.7481645  0.046625763 
   17800      100    3.3419665    3.3419665    1.8105082  0.048349326 
   17900      100    3.3115573    3.3115573    1.8034711  0.045244942 
   18000      100    3.1328067    3.1328067    1.7021381  0.047329535 
   18100      100    3.0743379    3.0743379    1.6997547  0.039063961 
   18200      100    3.0956166    3.0956166    1.7084783  0.044588214 
   18300      100    3.2766656    3.2766656     1.800214  0.041950556 
   18400      100     3.275295     3.275295     1.779938  0.045775763 
   18500      100    3.3913286    3.3913286    1.8437956  0.043170645 
   18600      100    3.6927109    3.6927109    1.9987388  0.045869629 
   18700      100    3.9467978    3.9467978    2.1292376  0.050038044 
   18800      100    3.5719751    3.5719751    1.9402894  0.061747044 
   18900      100    3.8999109    3.8999109       2.0834  0.057147082 
   19000      100    4.0347243    4.0347243    2.1527932  0.056697251 
   19100      100    4.0022754    4.0022754    2.1430489  0.055841375 
   19200      100    4.1744324    4.1744324    2.2258356  0.053401596 
   19300      100    3.9285439    3.9285439    2.0957716  0.064666219 
   19400      100    4.0772764    4.0772764    2.1780521  0.060666232 
   19500      100      4.15767      4.15767     2.212588  0.057529868 
   19600      100    4.0168707    4.0168707    2.1382252  0.054298484 
   19700      100    3.9792706    3.9792706    2.1242694  0.052315826 
   19800      100    4.0696447    4.0696447     2.168933  0.052350733 
   19900      100    3.8083225    3.8083225    2.0505018  0.055621684 
   20000      100    3.8501504    3.8501504    2.0841653  0.056049044 
Loop time of 0.113017 on 1 procs for 5000 steps with 100 atoms

Performance: 19112155.063 tau/day, 44241.100 timesteps/s
99.0% CPU use with 1 MPI tasks x no OpenMP threads

MPI task timing breakdown:
Section |  min time  |  avg time  |  max time  |%varavg| %total
---------------------------------------------------------------
Pair    | 0.0080957  | 0.0080957  | 0.0080957  |   0.0 |  7.16
Neigh   | 0.028473   | 0.028473   | 0.028473   |   0.0 | 25.19
Comm    | 0.00069213 | 0.00069213 | 0.00069213 |   0.0 |  0.61
Output  | 0.00026512 | 0.00026512 | 0.00026512 |   0.0 |  0.23
Modify  | 0.072896   | 0.072896   | 0.072896   |   0.0 | 64.50
Other   |            | 0.002595   |            |       |  2.30

Nlocal:    100 ave 100 max 100 min
Histogram: 1 0 0 0 0 0 0 0 0 0
Nghost:    0 ave 0 max 0 min
Histogram: 1 0 0 0 0 0 0 0 0 0
Neighs:    154 ave 154 max 154 min
Histogram: 1 0 0 0 0 0 0 0 0 0

Total # of neighbors = 154
Ave neighs/atom = 1.54
Neighbor list builds = 909
Dangerous builds = 0

region          container delete
region          container block -6 6 -6 6 -6 6 units box
run             5000
Per MPI rank memory allocation (min/avg/max) = 5.837 | 5.837 | 5.837 Mbytes
Step Atoms Temp c_1 c_2 Press 
   20000      100    3.8501504    3.8501504    2.0841653  0.056031107 
   20100      100    1.1183807    1.1183807   0.68557943  0.019149862 
   20200      100     1.007729     1.007729   0.61616374   0.01229083 
   20300      100   0.95710626   0.95710626   0.58444663  0.012854722 
   20400      100   0.89817102   0.89817102   0.56369777  0.012057958 
   20500      100   0.92452106   0.92452106    0.5742237   0.01419422 
   20600      100    1.0380106    1.0380106   0.62566198  0.014810207 
   20700      100    1.0087942    1.0087942   0.60044417  0.012463138 
   20800      100   0.95544773   0.95544773   0.55862665  0.011815881 
   20900      100   0.80306506   0.80306506    0.4749101  0.011003654 
   21000      100    0.3930527    0.3930527   0.25454891  0.018172293 
   21100      100    0.2415718    0.2415718   0.16210506 0.0041438249 
   21200      100   0.16299542   0.16299542   0.11054214 0.0051543671 
   21300      100   0.14087537   0.14087537  0.097547914 0.0021768214 
   21400      100  0.086577297  0.086577297  0.070068051 0.0024022637 
   21500      100  0.076071925  0.076071925  0.061623548 0.0039033542 
   21600      100  0.066015325  0.066015325  0.051471609 0.0017217938 
   21700      100  0.035593531  0.035593531  0.030886773 0.0007706896 
   21800      100  0.031660424  0.031660424  0.027718494  0.001446339 
   21900      100  0.030019777  0.030019777    0.0254863 0.0007535393 
   22000      100  0.023934624  0.023934624  0.020324686  0.001165261 
   22100      100  0.018404755  0.018404755  0.015093387 0.0006464395 
   22200      100   0.01204421   0.01204421  0.010475689 0.00072193601 
   22300      100  0.012171754  0.012171754 0.0099853105 0.00047804795 
   22400      100 0.0087111083 0.0087111083 0.0077690893 0.00025773417 
   22500      100 0.0068305082 0.0068305082 0.0063463833 0.00040774428 
   22600      100 0.0057568948 0.0057568948 0.0050899783 0.00024599641 
   22700      100 0.0057214421 0.0057214421 0.0049644655 0.00023888042 
   22800      100 0.0035514209 0.0035514209 0.0033715302 0.00034315482 
   22900      100  0.003204587  0.003204587 0.0027983439 0.00019379227 
   23000      100 0.0043129408 0.0043129408  0.003310057 0.00014855556 
   23100      100 0.0024334041 0.0024334041 0.0022329614  0.000387901 
   23200      100 0.0024422626 0.0024422626 0.0022462269 0.00016131126 
   23300      100 0.0019812007 0.0019812007 0.0018259898 9.4326605e-05 
   23400      100 0.0018604456 0.0018604456  0.001741832 0.0001518645 
   23500      100 0.0018294196 0.0018294196 0.0017318852 0.00015556377 
   23600      100  0.001862343  0.001862343 0.0017963915 0.00012104806 
   23700      100 0.0023046403 0.0023046403 0.0020416369 9.3266876e-05 
   23800      100 0.0016167765 0.0016167765 0.0015216311 0.00010646432 
   23900      100 0.0015906326 0.0015906326 0.0014566368 9.1855444e-05 
   24000      100 0.0012467022 0.0012467022 0.0011815389 5.8881799e-05 
   24100      100 0.0012420023 0.0012420023  0.001177797 5.6614301e-05 
   24200      100  0.001103317  0.001103317 0.0010512301 5.7545342e-05 
   24300      100 0.0010711004 0.0010711004 0.0010211262 5.7296199e-05 
   24400      100 0.00099280362 0.00099280362 0.00094832925 6.547792e-05 
   24500      100 0.00096198219 0.00096198219 0.00091726777 5.4906439e-05 
   24600      100 0.0009407395 0.0009407395 0.00089885761 6.448811e-05 
   24700      100 0.00085183853 0.00085183853 0.00082914218 8.249238e-05 
   24800      100 0.00079662284 0.00079662284 0.00077391677 5.6531763e-05 
   24900      100 0.00074924045 0.00074924045 0.00071047715 5.0734947e-05 
   25000      100 0.00072461259 0.00072461259 0.00068381333 8.3317401e-05 
Loop time of 0.0467215 on 1 procs for 5000 steps with 100 atoms

Performance: 46231433.529 tau/day, 107017.207 timesteps/s
99.9% CPU use with 1 MPI tasks x no OpenMP threads

MPI task timing breakdown:
Section |  min time  |  avg time  |  max time  |%varavg| %total
---------------------------------------------------------------
Pair    | 0.0062027  | 0.0062027  | 0.0062027  |   0.0 | 13.28
Neigh   | 0.0085144  | 0.0085144  | 0.0085144  |   0.0 | 18.22
Comm    | 0.00051904 | 0.00051904 | 0.00051904 |   0.0 |  1.11
Output  | 0.00024343 | 0.00024343 | 0.00024343 |   0.0 |  0.52
Modify  | 0.0289     | 0.0289     | 0.0289     |   0.0 | 61.86
Other   |            | 0.002342   |            |       |  5.01

Nlocal:    100 ave 100 max 100 min
Histogram: 1 0 0 0 0 0 0 0 0 0
Nghost:    0 ave 0 max 0 min
Histogram: 1 0 0 0 0 0 0 0 0 0
Neighs:    160 ave 160 max 160 min
Histogram: 1 0 0 0 0 0 0 0 0 0

Total # of neighbors = 160
Ave neighs/atom = 1.6
Neighbor list builds = 289
Dangerous builds = 0
Total wall time: 0:00:00
