LAMMPS (30 Oct 2019)
# Pour 2d granular particles into container

dimension	2
atom_style	sphere
atom_modify     map array
boundary	f fm p
newton		off
comm_modify	vel yes cutoff 2.5

fix             prop all property/atom mol ghost yes

region		reg block 0 100 0 50 -0.5 0.5 units box
create_box	1 reg
Created orthogonal box = (0 0 -0.5) to (100 50 0.5)
  4 by 1 by 1 MPI processor grid

neighbor	0.2 bin
neigh_modify	delay 0

# IMPORTANT NOTE: these values of stiffness (4000) and timestep (0.001)
# are used in this example file to produce a quick simulation and movie.
# More appropriate values for realistic simulations would be
# k = 4.0e5 and dt = 0.0001, as in bench/in.chute (if it were Hertzian).

pair_style      gran/hertz/history 4000.0 NULL 100.0 NULL 0.5 0
pair_coeff	* *

timestep	0.001

fix		2 all gravity 1.0 spherical 0.0 -180.0
fix		xwalls all wall/gran hertz/history 4000.0 NULL 100.0 NULL 0 1 		xplane 0 100
fix		ywalls all wall/gran hertz/history 4000.0 NULL 100.0 NULL 0 1 		yplane 0 NULL

molecule        object molecule.vshape
Read molecule object:
  5 atoms with max type 1
  0 bonds with max type 0
  0 angles with max type 0
  0 dihedrals with max type 0
  0 impropers with max type 0
fix             3 all rigid/small molecule mol object
  create bodies CPU = 0.000281572 secs
0 rigid bodies with 0 atoms
  2.23607 = max distance from body owner to body atom

# insure region size + molecule size does not overlap wall

region          slab block 3.0 97.0 30 34.5 -0.5 0.5 units box
fix             ins all pour 500 0 4767548 vol 0.8 10 	        region slab mol object rigid 3
Particle insertion: 26 every 3000 steps, 500 by step 57001

fix             4 all enforce2d

compute		1 all erotate/sphere
compute         Tsphere all temp/sphere
thermo_style	custom step atoms ke c_1 vol
thermo_modify	lost ignore norm no temp Tsphere
compute_modify	Tsphere dynamic/dof yes

thermo		1000

#dump		id all atom 100 tmp.dump

#variable        colors string #                "red green blue yellow white #                purple pink orange lime gray"
#variable	mol2 atom mol%10
#dump		2 all image 250 image.*.jpg v_mol2 type #		zoom 1.6 adiam 1.5
#dump_modify	2 pad 5 amap 0 10 sa 1 10 ${colors}

#variable        colors string #                "red green blue yellow white #                purple pink orange lime gray"
#variable	mol3 atom mol%10
#dump		3 all movie 250 movie.mpg v_mol3 type #		zoom 1.6 adiam 1.5
#dump_modify	3 pad 5 amap 0 10 sa 1 10 ${colors}

run	        25000
Neighbor list info ...
  update every 1 steps, delay 0 steps, check yes
  max neighbors/atom: 2000, page size: 100000
  master list distance cutoff = 1.2
  ghost atom cutoff = 2.5
  binsize = 0.6, bins = 167 84 2
  1 neighbor lists, perpetual/occasional/extra = 1 0 0
  (1) pair gran/hertz/history, perpetual
      attributes: half, newton off, size, history
      pair build: half/size/bin/newtoff
      stencil: half/bin/2d/newtoff
      bin: standard
Per MPI rank memory allocation (min/avg/max) = 5.773 | 5.773 | 5.773 Mbytes
Step Atoms KinEng c_1 Volume 
       0        0           -0            0         5000 
    1000      130    248.65568  0.002050506         5000 
    2000      130    452.01354 0.0020557556         5000 
    3000      130    720.36849 0.0021462148         5000 
    4000      260    1281.7126 0.0021462148         5000 
    5000      260    1875.9602 0.0021462148         5000 
    6000      260    1742.7747    2.0692779         5000 
    7000      390    1860.2142    1.7515066         5000 
    8000      390    1853.6219    2.3354959         5000 
    9000      390    1749.6466    5.1516327         5000 
   10000      520    1860.4314    4.2186838         5000 
   11000      520    1636.9411     4.006706         5000 
   12000      520    1454.1835    4.3341069         5000 
   13000      650    1881.6072    3.9569108         5000 
   14000      650    1647.7147    3.8159596         5000 
   15000      650    1466.3021    2.9494266         5000 
   16000      780    1558.2988    3.2754138         5000 
   17000      780    1475.8803    1.8560416         5000 
   18000      780    1365.3066    3.3250987         5000 
   19000      910    1454.0041    3.1089861         5000 
   20000      910    1397.1309    2.2853048         5000 
   21000      910    1138.0265     1.920639         5000 
   22000     1040    1315.4808    1.9923627         5000 
   23000     1040    1177.5317    2.5341631         5000 
   24000     1040    1206.2388    3.1971229         5000 
   25000     1170    1115.0981    2.5318975         5000 
Loop time of 0.697452 on 4 procs for 25000 steps with 1170 atoms

Performance: 3096988.075 tau/day, 35844.769 timesteps/s
96.6% CPU use with 4 MPI tasks x no OpenMP threads

MPI task timing breakdown:
Section |  min time  |  avg time  |  max time  |%varavg| %total
---------------------------------------------------------------
Pair    | 0.12791    | 0.14233    | 0.15461    |   3.2 | 20.41
Neigh   | 0.026584   | 0.032817   | 0.036488   |   2.1 |  4.71
Comm    | 0.034155   | 0.038295   | 0.041364   |   1.6 |  5.49
Output  | 0.00040436 | 0.00066692 | 0.001451   |   0.0 |  0.10
Modify  | 0.40441    | 0.41862    | 0.43204    |   1.6 | 60.02
Other   |            | 0.06472    |            |       |  9.28

Nlocal:    292.5 ave 323 max 265 min
Histogram: 1 0 1 0 0 0 1 0 0 1
Nghost:    44.75 ave 64 max 28 min
Histogram: 2 0 0 0 0 0 0 0 1 1
Neighs:    433 ave 480 max 377 min
Histogram: 1 0 0 0 1 0 0 1 0 1

Total # of neighbors = 1732
Ave neighs/atom = 1.48034
Neighbor list builds = 1714
Dangerous builds = 0
Total wall time: 0:00:00
